22
Step 66: E=-261.087364015
C   0.607531818182  0.064071090909 -0.001356681818
C   1.259142818182  1.404974090909 -0.425747681818
H   0.718510818182  2.252718090909  0.014567318182
H   2.301371818182  1.451349090909 -0.087556681818
H   1.244840818182  1.509925090909 -1.517671681818
C   1.429704818182 -1.091108909091 -0.623196681818
H   1.028746818182 -2.068506909091 -0.333459681818
H   1.421680818182 -1.020939909091 -1.717785681818
H   2.470864818182 -1.038733909091 -0.282201681818
C   0.653233818182 -0.053707909091  1.539456318182
H   1.690419818182  0.030995090909  1.885594318182
H   0.067543818182  0.741540090909  2.011777318182
H   0.263802818182 -1.021682909091  1.873233318182
C  -0.857452181818  0.048055090909 -0.555797681818
C  -1.689718181818 -1.213841909091 -0.096950681818
H  -0.784751181818 -0.019565909091 -1.652649681818
H  -1.136384181818 -2.128406909091 -0.333952681818
H  -2.650508181818 -1.256664909091 -0.621814681818
B  -1.784039181818  1.245555090909 -0.137840681818
H  -1.671841181818  1.791973090909  0.922431318182
H  -2.699053181818  1.573304090909 -0.839705681818
H  -1.883648181818 -1.201299909091  0.980628318182
22
Step 65: E=-261.087357909
C   0.607744227273  0.063390363636 -0.002304272727
C   1.257822227273  1.406452363636 -0.422217272727
H   0.717284227273  2.252101363636  0.022155727273
H   2.300477227273  1.452180363636 -0.085242272727
H   1.242093227273  1.515615363636 -1.513732272727
C   1.431319227273 -1.088667636364 -0.628083272727
H   1.029636227273 -2.067553636364 -0.344164272727
H   1.425605227273 -1.013003636364 -1.722337272727
H   2.471751227273 -1.038080636364 -0.284530272727
C   0.653014227273 -0.059584636364  1.538089727273
H   1.689463227273  0.028944363636  1.885398727273
H   0.063108227273  0.731247363636  2.012636727273
H   0.267896227273 -1.030536636364  1.868097727273
C  -0.857304772727  0.046449363636 -0.556767272727
C  -1.691214772727 -1.211562636364 -0.089879272727
H  -0.784906772727 -0.027316636364 -1.653196272727
H  -1.132724772727 -2.128389636364 -0.309004272727
H  -2.646498772727 -1.263096636364 -0.624722272727
B  -1.782248772727  1.246886363636 -0.143942272727
H  -1.670448772727  1.794897363636  0.915632727273
H  -2.695416772727  1.575304363636 -0.847936272727
H  -1.896450772727 -1.185676636364  0.986047727273
22
Step 64: E=-261.087344785
C   0.608455863636  0.063458136364 -0.003667136364
C   1.258875863636  1.407586136364 -0.419479136364
H   0.718852863636  2.252041136364  0.027573863636
H   2.301617863636  1.451628136364 -0.082508136364
H   1.243201863636  1.520114136364 -1.510658136364
C   1.432562863636 -1.086565863636 -0.632611136364
H   1.029036863636 -2.066428863636 -0.354752136364
H   1.429946863636 -1.005524863636 -1.726457136364
H   2.472078863636 -1.038886863636 -0.285915136364
C   0.652638863636 -0.063970863636  1.536327863636
H   1.688941863636  0.022434136364  1.884776863636
H   0.063146863636  0.726298136364  2.012539863636
H   0.265996863636 -1.035429863636  1.863210863636
C  -0.856597136364  0.046175136364 -0.558020136364
C  -1.692465136364 -1.208315863636 -0.083786136364
H  -0.785068136364 -0.033009863636 -1.654009136364
H  -1.125352136364 -2.125828863636 -0.277536136364
H  -2.638063136364 -1.273266863636 -0.634402136364
B  -1.782776136364  1.246287136364 -0.148005136364
H  -1.668422136364  1.799165136364  0.908747863636
H  -2.700114136364  1.568258136364 -0.849637136364
H  -1.916496136364 -1.166216863636  0.988266863636
22
Step 63: E=-261.087318879
C   0.609496045455  0.064031909091 -0.005110181818
C   1.261175045455  1.408335909091 -0.418204181818
H   0.721615045455  2.252419909091  0.029928818182
H   2.303761045455  1.450708909091 -0.080503181818
H   1.246407045455  1.522746909091 -1.509200181818
C   1.433614045455 -1.085168090909 -0.635752181818
H   1.027942045455 -2.065491090909 -0.362710181818
H   1.434104045455 -1.000190090909 -1.729275181818
H   2.472219045455 -1.040376090909 -0.286019181818
C   0.652174045455 -0.066217090909  1.534627818182
H   1.688609045455  0.014325909091  1.884028818182
H   0.066304045455  0.726241909091  2.011698818182
H   0.260175045455 -1.036205090909  1.859480818182
C  -0.855350954545  0.046885909091 -0.559659181818
C  -1.693601954545 -1.204829090909 -0.080024181818
H  -0.784570954545 -0.035929090909 -1.655277181818
H  -1.115755954545 -2.121738090909 -0.243339181818
H  -2.625931954545 -1.286048090909 -0.650726181818
B  -1.784578954545  1.243981909091 -0.149291181818
H  -1.667742954545  1.799837909091  0.905591818182
H  -2.707865954545  1.558190909091 -0.846499181818
H  -1.942195954545 -1.145516090909  0.986233818182
22
Step 62: E=-261.087279474
C   0.610530363636  0.064631772727 -0.006290863636
C   1.263325363636  1.408847772727 -0.417727863636
H   0.724144363636  2.252809772727  0.030965136364
H   2.305802363636  1.449985772727 -0.079522863636
H   1.249184363636  1.524360772727 -1.508614863636
C   1.434364363636 -1.084316227273 -0.637929863636
H   1.026903363636 -2.064816227273 -0.368164863636
H   1.437059363636 -0.996766227273 -1.731225863636
H   2.472318363636 -1.041828227273 -0.286035863636
C   0.652002363636 -0.067393227273  1.533280136364
H   1.688575363636  0.008053772727  1.883350136364
H   0.069472363636  0.727216772727  2.010841136364
H   0.255236363636 -1.035878227273  1.856850136364
C  -0.854031636364  0.047824772727 -0.561179863636
C  -1.694733636364 -1.201803227273 -0.077874863636
H  -0.783597636364 -0.037191227273 -1.656479863636
H  -1.105931636364 -2.116387227273 -0.208016863636
H  -2.611002636364 -1.301119227273 -0.670053863636
B  -1.786316636364  1.241443772727 -0.149179863636
H  -1.667957636364  1.798009772727  0.905137136364
H  -2.714396636364  1.549946772727 -0.842448863636
H  -1.970950636364 -1.125632227273  0.980323136364
22
Step 61: E=-261.087221209
C   0.611553318182  0.065204590909 -0.007300363636
C   1.265331318182  1.409251590909 -0.417554363636
H   0.726453318182  2.253153590909  0.031520636364
H   2.307732318182  1.449401590909 -0.079005363636
H   1.251599318182  1.525545590909 -1.508362363636
C   1.434971318182 -1.083737409091 -0.639641363636
H   1.025959318182 -2.064304409091 -0.372361363636
H   1.439410318182 -0.994270409091 -1.732768363636
H   2.472415318182 -1.043214409091 -0.286007363636
C   0.652038318182 -0.068121409091  1.532141636364
H   1.688734318182  0.003130590909  1.882760636364
H   0.072290318182  0.728332590909  2.010026636364
H   0.251253318182 -1.035320409091  1.854750636364
C  -0.852703681818  0.048814590909 -0.562594363636
C  -1.695918681818 -1.199002409091 -0.076447363636
H  -0.782418681818 -0.037813409091 -1.657602363636
H  -1.095719681818 -2.111012409091 -0.172591363636
H  -2.595329681818 -1.316899409091 -0.691055363636
B  -1.788004681818  1.238860590909 -0.148544363636
H  -1.668650681818  1.795197590909  0.905756636364
H  -2.720059681818  1.542948590909 -0.838423363636
H  -2.000936681818 -1.106145409091  0.973302636364
22
Step 60: E=-261.087149389
C   0.612751818182  0.065805727273 -0.008310636364
C   1.267446818182  1.409663727273 -0.417553636364
H   0.729108818182  2.253481727273  0.032237363636
H   2.309922818182  1.448735727273 -0.079096636364
H   1.253681818182  1.526872727273 -1.508257636364
C   1.435478818182 -1.083311272727 -0.641357636364
H   1.024035818182 -2.063759272727 -0.377284636364
H   1.442313818182 -0.991454272727 -1.734259636364
H   2.472229818182 -1.045623272727 -0.285428636364
C   0.652567818182 -0.068595272727  1.531027363636
H   1.689471818182 -0.001644272727  1.881851363636
H   0.075878818182  0.729825727273  2.009283363636
H   0.247793818182 -1.034378272727  1.852986363636
C  -0.851151181818  0.050004727273 -0.564055636364
C  -1.697348181818 -1.195957272727 -0.075490636364
H  -0.780922181818 -0.037753272727 -1.658778636364
H  -1.087494181818 -2.104470272727 -0.137928636364
H  -2.579251181818 -1.332168272727 -0.710979636364
B  -1.789828181818  1.235822727273 -0.147243636364
H  -1.670267181818  1.790542727273  0.907868363636
H  -2.725717181818  1.535642727273 -0.833707636364
H  -2.030703181818 -1.087283272727  0.964479363636
22
Step 59: E=-261.087063331
C   0.613948318182  0.066348090909 -0.009193863636
C   1.269350318182  1.410050090909 -0.417643863636
H   0.731520318182  2.253748090909  0.032909136364
H   2.311956318182  1.448219090909 -0.079471863636
H   1.255324318182  1.528103090909 -1.508246863636
C   1.435906318182 -1.083022909091 -0.642879863636
H   1.022064318182 -2.063277909091 -0.381702863636
H   1.444881318182 -0.989024909091 -1.735571863636
H   2.472039318182 -1.048079909091 -0.284907863636
C   0.653340318182 -0.068885909091  1.530064136364
H   1.690440318182 -0.005367909091  1.880936136364
H   0.079158318182  0.731111090909  2.008654136364
H   0.245415318182 -1.033517909091  1.851608136364
C  -0.849575681818  0.051147090909 -0.565436863636
C  -1.698863681818 -1.193063909091 -0.074864863636
H  -0.779235681818 -0.037417909091 -1.659879863636
H  -1.080173681818 -2.097252909091 -0.103039863636
H  -2.562295681818 -1.348032909091 -0.730709863636
B  -1.791500681818  1.232799090909 -0.145829863636
H  -1.672208681818  1.785272090909  0.910478136364
H  -2.730569681818  1.529122090909 -0.829389863636
H  -2.060921681818 -1.068974909091  0.954120136364
22
Step 58: E=-261.086963941
C   0.615150590909  0.066838772727 -0.009983863636
C   1.271086590909  1.410430772727 -0.417777863636
H   0.733745590909  2.253960772727  0.033611136364
H   2.313869590909  1.447822772727 -0.080056863636
H   1.256610590909  1.529313772727 -1.508278863636
C   1.436285590909 -1.082833227273 -0.644275863636
H   1.020038590909 -2.062832227273 -0.385814863636
H   1.447219590909 -0.986845227273 -1.736767863636
H   2.471852590909 -1.050603227273 -0.284454863636
C   0.654325590909 -0.069053227273  1.529212136364
H   1.691613590909 -0.008210227273  1.879996136364
H   0.082159590909  0.732162772727  2.008121136364
H   0.243993590909 -1.032780227273  1.850520136364
C  -0.847969409091  0.052248772727 -0.566767863636
C  -1.700464409091 -1.190255227273 -0.074449863636
H  -0.777383409091 -0.036896227273 -1.660934863636
H  -1.073841409091 -2.089344227273 -0.068012863636
H  -2.544651409091 -1.364334227273 -0.749920863636
B  -1.793054409091  1.229772772727 -0.144383863636
H  -1.674474409091  1.779430772727  0.913451136364
H  -2.734787409091  1.523146772727 -0.825468863636
H  -2.091325409091 -1.051141227273  0.942438136364
22
Step 57: E=-261.086854319
C   0.616293227273  0.067236863636 -0.010673818182
C   1.272577227273  1.410778863636 -0.417913818182
H   0.735646227273  2.254091863636  0.034315181818
H   2.315552227273  1.447555863636 -0.080717818182
H   1.257545227273  1.530439863636 -1.508312818182
C   1.436597227273 -1.082734136364 -0.645556818182
H   1.018169227273 -2.062453136364 -0.389378818182
H   1.449093227273 -0.985061136364 -1.737871818182
H   2.471713227273 -1.052927136364 -0.284266818182
C   0.655449227273 -0.069192136364  1.528472181818
H   1.692900227273 -0.010151136364  1.879080181818
H   0.084678227273  0.732802863636  2.007692181818
H   0.243556227273 -1.032320136364  1.849678181818
C  -0.846434772727  0.053260863636 -0.567973818182
C  -1.702070772727 -1.187699136364 -0.074190818182
H  -0.775541772727 -0.036193136364 -1.661880818182
H  -1.068763772727 -2.080347136364 -0.032531818182
H  -2.525785772727 -1.381544136364 -0.768129818182
B  -1.794406772727  1.226934863636 -0.142982818182
H  -1.676787772727  1.773646863636  0.916460181818
H  -2.738154772727  1.518064863636 -0.822173818182
H  -2.121824772727 -1.034191136364  0.928858181818
22
Step 56: E=-261.086730133
C   0.617397727273  0.067573090909 -0.011289272727
C   1.273886727273  1.411112090909 -0.418036272727
H   0.737272727273  2.254170090909  0.035000727273
H   2.317052727273  1.447408090909 -0.081388272727
H   1.258250727273  1.531496090909 -1.508342272727
C   1.436886727273 -1.082687909091 -0.646743272727
H   1.016504727273 -2.062141909091 -0.392513272727
H   1.450681727273 -0.983562909091 -1.738903272727
H   2.471628727273 -1.055047909091 -0.284204272727
C   0.656659727273 -0.069317909091  1.527813727273
H   1.694230727273 -0.011472909091  1.878238727273
H   0.086824727273  0.733153090909  2.007315727273
H   0.243712727273 -1.032050909091  1.848949727273
C  -0.844950272727  0.054191090909 -0.569117272727
C  -1.703713272727 -1.185267909091 -0.074014272727
H  -0.773691272727 -0.035510909091 -1.662761272727
H  -1.063640272727 -2.071351909091  0.003251727273
H  -2.506676272727 -1.399195909091 -0.786565272727
B  -1.795646272727  1.224222090909 -0.141683272727
H  -1.679078272727  1.768071090909  0.919344727273
H  -2.740963272727  1.513635090909 -0.819375272727
H  -2.152631272727 -1.017422909091  0.915021727273
22
Step 55: E=-261.086597966
C   0.618581227273  0.067844727273 -0.011882500000
C   1.275129227273  1.411466727273 -0.418116500000
H   0.738954227273  2.254163727273  0.036074500000
H   2.318591227273  1.447255727273 -0.082330500000
H   1.258551227273  1.532801727273 -1.508293500000
C   1.437181227273 -1.082689272727 -0.648011500000
H   1.014500227273 -2.061787272727 -0.396003500000
H   1.452427227273 -0.981890272727 -1.739992500000
H   2.471507227273 -1.057543272727 -0.284126500000
C   0.658221227273 -0.069479272727  1.527175500000
H   1.695940227273 -0.011860272727  1.877206500000
H   0.088667227273  0.732938727273  2.007054500000
H   0.245268227273 -1.032219272727  1.848375500000
C  -0.843373772727  0.055124727273 -0.570242500000
C  -1.705540772727 -1.182717272727 -0.073900500000
H  -0.771702772727 -0.034644272727 -1.663629500000
H  -1.060513772727 -2.061301272727  0.038736500000
H  -2.487164772727 -1.416616272727 -0.803378500000
B  -1.796852772727  1.221382727273 -0.140308500000
H  -1.682167772727  1.761333727273  0.922900500000
H  -2.743202772727  1.509592727273 -0.817011500000
H  -2.183000772727 -1.001157272727  0.899704500000
22
Step 54: E=-261.086457149
C   0.619742363636  0.068029818182 -0.012416363636
C   1.276208363636  1.411802818182 -0.418148363636
H   0.740416363636  2.254086818182  0.037230636364
H   2.319974363636  1.447184818182 -0.083265363636
H   1.258630363636  1.534100818182 -1.508193363636
C   1.437485363636 -1.082724181818 -0.649245363636
H   1.012633363636 -2.061456181818 -0.399233363636
H   1.453963363636 -0.980384181818 -1.741060363636
H   2.471461363636 -1.059899181818 -0.284225363636
C   0.659915363636 -0.069683181818  1.526602636364
H   1.697773363636 -0.011609181818  1.876157636364
H   0.090158363636  0.732334818182  2.006870636364
H   0.247644363636 -1.032684181818  1.847974636364
C  -0.841831636364  0.055964818182 -0.571286363636
C  -1.707425636364 -1.180269181818 -0.073827363636
H  -0.769718636364 -0.033757181818 -1.664424363636
H  -1.058525636364 -2.050578181818  0.074332636364
H  -2.467072636364 -1.434399181818 -0.819254363636
B  -1.797925636364  1.218659818182 -0.139042363636
H  -1.685378636364  1.754591818182  0.926419636364
H  -2.744869636364  1.506101818182 -0.815187363636
H  -2.213258636364 -0.985414181818  0.883221636364
22
Step 53: E=-261.086309063
C   0.620890318182  0.068131727273 -0.012902409091
C   1.277147318182  1.412129727273 -0.418123409091
H   0.741688318182  2.253939727273  0.038497590909
H   2.321224318182  1.447187727273 -0.084181409091
H   1.258515318182  1.535429727273 -1.508028409091
C   1.437831318182 -1.082777272727 -0.650464409091
H   1.010916318182 -2.061147272727 -0.402310409091
H   1.455377318182 -0.978972272727 -1.742122409091
H   2.471506318182 -1.062132272727 -0.284477409091
C   0.661737318182 -0.069944272727  1.526080590909
H   1.699730318182 -0.010783272727  1.875070590909
H   0.091334318182  0.731335727273  2.006770590909
H   0.250820318182 -1.033456272727  1.847712590909
C  -0.840309681818  0.056713727273 -0.572261409091
C  -1.709389681818 -1.177871272727 -0.073753409091
H  -0.767732681818 -0.032889272727 -1.665158409091
H  -1.057729681818 -2.039183272727  0.109931590909
H  -2.446559681818 -1.452410272727 -0.834067409091
B  -1.798889681818  1.216018727273 -0.137904409091
H  -1.688780681818  1.747735727273  0.929907590909
H  -2.746029681818  1.503056727273 -0.813893409091
H  -2.243297681818 -0.970112272727  0.865677590909
22
Step 52: E=-261.086157273
C   0.621983590909  0.068137045455 -0.013346681818
C   1.277923590909  1.412426045455 -0.418036681818
H   0.742718590909  2.253727045455  0.039794318182
H   2.322294590909  1.447253045455 -0.084995681818
H   1.258268590909  1.536707045455 -1.507801681818
C   1.438213590909 -1.082841954545 -0.651666681818
H   1.009486590909 -2.060888954545 -0.405119681818
H   1.456591590909 -0.977715954545 -1.743181681818
H   2.471659590909 -1.064088954545 -0.284932681818
C   0.663604590909 -0.070301954545  1.525602318182
H   1.701712590909 -0.009661954545  1.873995318182
H   0.092260590909  0.730019045455  2.006737318182
H   0.254462590909 -1.034471954545  1.847536318182
C  -0.838871409091  0.057344045455 -0.573126681818
C  -1.711348409091 -1.175629954545 -0.073648681818
H  -0.765889409091 -0.032053954545 -1.665802681818
H  -1.058446409091 -2.026711954545  0.145585318182
H  -2.425242409091 -1.470901954545 -0.847302681818
B  -1.799719409091  1.213549045455 -0.136898681818
H  -1.692109409091  1.741226045455  0.933145318182
H  -2.746701409091  1.500518045455 -0.813090681818
H  -2.272852409091 -0.955636954545  0.846555318182
22
Step 51: E=-261.08599771
C   0.623043227273  0.068082136364 -0.013771772727
C   1.278563227273  1.412720136364 -0.417896772727
H   0.743532227273  2.253490136364  0.041084227273
H   2.323211227273  1.447391136364 -0.085713772727
H   1.257940227273  1.537943136364 -1.507532772727
C   1.438657227273 -1.082886863636 -0.652865772727
H   1.008321227273 -2.060658863636 -0.407735772727
H   1.457712227273 -0.976565863636 -1.744247772727
H   2.471907227273 -1.065795863636 -0.285487772727
C   0.665486227273 -0.070742863636  1.525141227273
H   1.703674227273 -0.008390863636  1.872977227273
H   0.093003227273  0.728501136364  2.006703227273
H   0.258272227273 -1.035644863636  1.847363227273
C  -0.837485772727  0.057877136364 -0.573963772727
C  -1.713331772727 -1.173446863636 -0.073490772727
H  -0.764096772727 -0.031362863636 -1.666413772727
H  -1.059229772727 -2.014206863636  0.181556227273
H  -2.403832772727 -1.489704863636 -0.860404772727
B  -1.800471772727  1.211193136364 -0.136075772727
H  -1.695290772727  1.735115136364  0.936071227273
H  -2.747098772727  1.498307136364 -0.812658772727
H  -2.302485772727 -0.941212863636  0.827363227273
22
Step 50: E=-261.085837456
C   0.624148590909  0.067923863636 -0.014207954545
C   1.279107590909  1.413038863636 -0.417644954545
H   0.744282590909  2.253128863636  0.042804045455
H   2.324089590909  1.447560863636 -0.086501954545
H   1.257284590909  1.539467863636 -1.507106954545
C   1.439235590909 -1.082903136364 -0.654195954545
H   1.007247590909 -2.060417136364 -0.410677954545
H   1.459046590909 -0.975193136364 -1.745428954545
H   2.472276590909 -1.067523136364 -0.286147954545
C   0.667617590909 -0.071375136364  1.524657045455
H   1.705861590909 -0.006123136364  1.871801045455
H   0.093119590909  0.726058863636  2.006796045455
H   0.263627590909 -1.037536136364  1.847166045455
C  -0.836069409091  0.058334863636 -0.574768954545
C  -1.715512409091 -1.171102136364 -0.073166954545
H  -0.762335409091 -0.030794136364 -1.666995954545
H  -1.061988409091 -2.000675136364  0.216947045455
H  -2.382447409091 -1.508084136364 -0.871479954545
B  -1.801201409091  1.208769863636 -0.135357954545
H  -1.699297409091  1.728067863636  0.939344045455
H  -2.746846409091  1.496604863636 -0.812959954545
H  -2.331247409091 -0.927230136364  0.807127045455
22
Step 49: E=-261.085675601
C   0.625240272727  0.067685227273 -0.014652000000
C   1.279542272727  1.413355227273 -0.417317000000
H   0.744843272727  2.252708227273  0.044607000000
H   2.324840272727  1.447798227273 -0.087168000000
H   1.256557272727  1.541031227273 -1.506601000000
C   1.439931272727 -1.082885772727 -0.655560000000
H   1.006455272727 -2.060179772727 -0.413528000000
H   1.460393272727 -0.973845772727 -1.746650000000
H   2.472793272727 -1.069015772727 -0.286937000000
C   0.669780272727 -0.072148772727  1.524161000000
H   1.708048272727 -0.003606772727  1.870612000000
H   0.092957272727  0.723227227273  2.006912000000
H   0.269435272727 -1.039727772727  1.846953000000
C  -0.834691727273  0.058686227273 -0.575543000000
C  -1.717751727273 -1.168756772727 -0.072700000000
H  -0.760686727273 -0.030399772727 -1.667555000000
H  -1.065889727273 -1.986422772727  0.252202000000
H  -2.360827727273 -1.526567772727 -0.881207000000
B  -1.801852727273  1.206422227273 -0.134820000000
H  -1.703386727273  1.721131227273  0.942405000000
H  -2.746246727273  1.495198227273 -0.813721000000
H  -2.359483727273 -0.913685772727  0.786107000000
22
Step 48: E=-261.085513018
C   0.626341136364  0.067364090909 -0.015115727273
C   1.279884136364  1.413680090909 -0.416906727273
H   0.745216136364  2.252218090909  0.046522272727
H   2.325476136364  1.448122090909 -0.087696727273
H   1.255773136364  1.542667090909 -1.506001727273
C   1.440796136364 -1.082819909091 -0.656970727273
H   1.006005136364 -2.059948909091 -0.416366727273
H   1.461853136364 -0.972461909091 -1.747919727273
H   2.473499136364 -1.070263909091 -0.287832727273
C   0.671972136364 -0.073084909091  1.523636272727
H   1.710217136364 -0.000850909091  1.869406272727
H   0.092490136364  0.719932090909  2.007055272727
H   0.275740136364 -1.042267909091  1.846644272727
C  -0.833324863636  0.058918090909 -0.576309727273
C  -1.720094863636 -1.166334909091 -0.072037727273
H  -0.759128863636 -0.030245909091 -1.668108727273
H  -1.071003863636 -1.971483909091  0.287224272727
H  -2.339213863636 -1.544978909091 -0.889489727273
B  -1.802436863636  1.204103090909 -0.134493727273
H  -1.707637863636  1.714177090909  0.945250272727
H  -2.745314863636  1.493998090909 -0.814977727273
H  -2.387107863636 -0.900437909091  0.764489272727
22
Step 47: E=-261.085352355
C   0.627430363636  0.066963090909 -0.015595363636
C   1.280136363636  1.413996090909 -0.416422363636
H   0.745396363636  2.251682090909  0.048442636364
H   2.325985363636  1.448510090909 -0.088041363636
H   1.255015363636  1.544280090909 -1.505330363636
C   1.441825363636 -1.082701909091 -0.658406363636
H   1.005952363636 -2.059733909091 -0.419114363636
H   1.463375363636 -0.971094909091 -1.749220363636
H   2.474392363636 -1.071198909091 -0.288831363636
C   0.674115363636 -0.074192909091  1.523084636364
H   1.712286363636  0.001773090909  1.868242636364
H   0.091900363636  0.716376090909  2.007199636364
H   0.282072363636 -1.045003909091  1.846203636364
C  -0.832001636364  0.059013090909 -0.577038363636
C  -1.722456636364 -1.163917909091 -0.071189363636
H  -0.757746636364 -0.030330909091 -1.668640363636
H  -1.077672636364 -1.955520909091  0.321948636364
H  -2.317316636364 -1.563440909091 -0.895883363636
B  -1.802934636364  1.201859090909 -0.134351363636
H  -1.711747636364  1.707583090909  0.947723636364
H  -2.744167636364  1.492948090909 -0.816548363636
H  -2.413839636364 -0.887846909091  0.741767636364
22
Step 46: E=-261.085189636
C   0.628537590909  0.066503500000 -0.016114227273
C   1.280307590909  1.414327500000 -0.415873227273
H   0.745400590909  2.251142500000  0.050339772727
H   2.326385590909  1.448977500000 -0.088237227273
H   1.254293590909  1.545868500000 -1.504607227273
C   1.443060590909 -1.082507500000 -0.659884227273
H   1.006275590909 -2.059506500000 -0.421813227273
H   1.465026590909 -0.969725500000 -1.750565227273
H   2.475482590909 -1.071857500000 -0.289872227273
C   0.676208590909 -0.075470500000  1.522483772727
H   1.714272590909  0.004217500000  1.867131772727
H   0.091227590909  0.712659500000  2.007280772727
H   0.288270590909 -1.047902500000  1.845633772727
C  -0.830671409091  0.058981500000 -0.577827227273
C  -1.724904409091 -1.161400500000 -0.070156227273
H  -0.756401409091 -0.030700500000 -1.669217227273
H  -1.084627409091 -1.939498500000  0.356915772727
H  -2.295688409091 -1.581883500000 -0.901831227273
B  -1.803385409091  1.199612500000 -0.134457227273
H  -1.715644409091  1.701332500000  0.949792772727
H  -2.742985409091  1.491865500000 -0.818366227273
H  -2.440441409091 -0.875035500000  0.719243772727
22
Step 45: E=-261.085031259
C   0.629749818182  0.065917136364 -0.016715000000
C   1.280408818182  1.414702136364 -0.415176000000
H   0.745188818182  2.250440136364  0.052587000000
H   2.326700818182  1.449595136364 -0.088251000000
H   1.253462818182  1.547754136364 -1.503694000000
C   1.444716818182 -1.082172863636 -0.661533000000
H   1.007274818182 -2.059272863636 -0.424831000000
H   1.467180818182 -0.968059863636 -1.752069000000
H   2.476988818182 -1.072101863636 -0.291056000000
C   0.678448818182 -0.077114863636  1.521774000000
H   1.716286818182  0.007347136364  1.865952000000
H   0.089811818182  0.707744136364  2.007444000000
H   0.295805818182 -1.051698863636  1.844670000000
C  -0.829248181818  0.058801136364 -0.578685000000
C  -1.727710181818 -1.158449863636 -0.068726000000
H  -0.755105181818 -0.031639863636 -1.669846000000
H  -1.093556181818 -1.922669863636  0.390730000000
H  -2.275294181818 -1.599079863636 -0.905352000000
B  -1.803860181818  1.197143136364 -0.134840000000
H  -1.720319181818  1.694189136364  0.951880000000
H  -2.741371181818  1.490815136364 -0.820952000000
H  -2.465561181818 -0.862187863636  0.696689000000
22
Step 44: E=-261.084875619
C   0.631023181818  0.065234136364 -0.017382727273
C   1.280464181818  1.415079136364 -0.414403727273
H   0.744768181818  2.249665136364  0.054847272727
H   2.326919181818  1.450321136364 -0.088039727273
H   1.252728181818  1.549661136364 -1.502704727273
C   1.446723181818 -1.081736863636 -0.663238727273
H   1.008898181818 -2.059025863636 -0.427791727273
H   1.469617181818 -0.966362863636 -1.753634727273
H   2.478854181818 -1.071906863636 -0.292331727273
C   0.680663181818 -0.078992863636  1.520984272727
H   1.718212181818  0.010347136364  1.864792272727
H   0.088237181818  0.702452136364  2.007556272727
H   0.303434181818 -1.055784863636  1.843501272727
C  -0.827770818182  0.058478136364 -0.579624727273
C  -1.730735818182 -1.155227863636 -0.067017727273
H  -0.753873818182 -0.033027863636 -1.670543727273
H  -1.103689818182 -1.905262863636  0.423879272727
H  -2.255664818182 -1.615652863636 -0.907269727273
B  -1.804324818182  1.194537136364 -0.135470727273
H  -1.725068818182  1.686984136364  0.953653272727
H  -2.739701818182  1.489538136364 -0.823863727273
H  -2.489711818182 -0.849315863636  0.674104272727
22
Step 43: E=-261.084722065
C   0.632380272727  0.064439136364 -0.018134090909
C   1.280486272727  1.415454136364 -0.413564090909
H   0.744117272727  2.248794136364  0.057098909091
H   2.327042272727  1.451174136364 -0.087575090909
H   1.252130272727  1.551590136364 -1.501647090909
C   1.449176272727 -1.081181863636 -0.664997090909
H   1.011359272727 -2.058802863636 -0.430696090909
H   1.472440272727 -0.964620863636 -1.755262090909
H   2.481178272727 -1.071148863636 -0.293696090909
C   0.682842272727 -0.081125863636  1.520095909091
H   1.720018272727  0.013200136364  1.863662909091
H   0.086470272727  0.696723136364  2.007596909091
H   0.311162272727 -1.060194863636  1.842053909091
C  -0.826207727273  0.058000136364 -0.580684090909
C  -1.734082727273 -1.151608863636 -0.064989090909
H  -0.752685727273 -0.034960863636 -1.671338090909
H  -1.114983727273 -1.887409863636  0.456079909091
H  -2.237290727273 -1.631252863636 -0.907562090909
B  -1.804806727273  1.191704136364 -0.136366090909
H  -1.729943727273  1.679581136364  0.955100909091
H  -2.738047727273  1.487853136364 -0.827095090909
H  -2.512754727273 -0.836205863636  0.651916909091
22
Step 42: E=-261.084570477
C   0.633809590909  0.063531590909 -0.018959454545
C   1.280497590909  1.415797590909 -0.412693454545
H   0.743274590909  2.247848590909  0.059226545455
H   2.327088590909  1.452105590909 -0.086875454545
H   1.251729590909  1.553431590909 -1.500568454545
C   1.452062590909 -1.080531409091 -0.666765454545
H   1.014743590909 -2.058655409091 -0.433446454545
H   1.475581590909 -0.962918409091 -1.756913454545
H   2.483948590909 -1.069807409091 -0.295130454545
C   0.684925590909 -0.083482409091  1.519115545455
H   1.721661590909  0.015618590909  1.862600545455
H   0.084707590909  0.690809590909  2.007531545455
H   0.318579590909 -1.064758409091  1.840333545455
C  -0.824569409091  0.057343590909 -0.581847454545
C  -1.737687409091 -1.147644409091 -0.062704454545
H  -0.751574409091 -0.037372409091 -1.672221454545
H  -1.127633409091 -1.868827409091  0.487173545455
H  -2.220151409091 -1.645918409091 -0.906026454545
B  -1.805308409091  1.188628590909 -0.137442454545
H  -1.734695409091  1.672176590909  0.956195545455
H  -2.736536409091  1.485708590909 -0.830406454545
H  -2.534454409091 -0.823084409091  0.629824545455
22
Step 41: E=-261.084417071
C   0.635348863636  0.062528909091 -0.019894272727
C   1.280522863636  1.416129909091 -0.411820272727
H   0.742261863636  2.246857909091  0.061189727273
H   2.327083863636  1.453134909091 -0.085983272727
H   1.251551863636  1.555190909091 -1.499504272727
C   1.455434863636 -1.079774090909 -0.668550272727
H   1.018964863636 -2.058530090909 -0.436067272727
H   1.479117863636 -0.961253090909 -1.758594272727
H   2.487193863636 -1.067940090909 -0.296586272727
C   0.686922863636 -0.086047090909  1.518014727273
H   1.723184863636  0.017652909091  1.861571727273
H   0.082920863636  0.684768909091  2.007316727273
H   0.325682863636 -1.069486090909  1.838366727273
C  -0.822791136364  0.056539909091 -0.583225272727
C  -1.741622136364 -1.143235090909 -0.060194272727
H  -0.750416136364 -0.040239090909 -1.673283272727
H  -1.140764136364 -1.850486090909  0.517601727273
H  -2.204727136364 -1.659399090909 -0.903817272727
B  -1.805866136364  1.185201909091 -0.138719272727
H  -1.739319136364  1.664642909091  0.956983727273
H  -2.735314136364  1.482888909091 -0.833735272727
H  -2.555372136364 -0.809148090909  0.608929727273
22
Step 40: E=-261.084263894