22
Step 100: E=-261.08901963
C   0.790150272727  0.077090545455 -0.013667909091
C   1.724120272727  1.088700545455 -0.723000909091
H   1.403552272727  2.117645545455 -0.519489909091
H   2.753915272727  0.970742545455 -0.365442909091
H   1.713464272727  0.928475545455 -1.807724909091
C   1.260145272727 -1.358657454545 -0.333487909091
H   0.625547272727 -2.100134454545  0.162985090909
H   1.229684272727 -1.541481454545 -1.414508909091
H   2.291100272727 -1.502015454545  0.011588090909
C   0.850602272727  0.329271545455  1.510214090909
H   1.877935272727  0.202193545455  1.871584090909
H   0.526569272727  1.350985545455  1.742058090909
H   0.209614272727 -0.370497454545  2.056453090909
C  -0.654474727273  0.315095545455 -0.545683909091
C  -1.739963727273 -0.716994454545 -0.016871909091
H  -0.645971727273  0.271515545455 -1.640758909091
H  -1.443831727273 -1.070119454545  0.976307090909
H  -1.767543727273 -1.570630454545 -0.702127909091
H  -3.342236727273  0.759966545455  0.996205090909
H  -3.695492727273  0.319567545455 -0.982671909091
B  -3.040738727273  0.151989545455  0.007513090909
H  -0.926146727273  1.347290545455 -0.269469909091
22
Step 99: E=-261.089019626
C   0.790155045455  0.077140181818 -0.013659500000
C   1.724219045455  1.088634181818 -0.723034500000
H   1.403705045455  2.117618181818 -0.519629500000
H   2.753990045455  0.970644181818 -0.365415500000
H   1.713606045455  0.928315181818 -1.807746500000
C   1.260013045455 -1.358662818182 -0.333438500000
H   0.625463045455 -2.100064818182  0.163206500000
H   1.229354045455 -1.541578818182 -1.414442500000
H   2.291024045455 -1.502048818182  0.011470500000
C   0.850637045455  0.329372181818  1.510215500000
H   1.877917045455  0.201979181818  1.871633500000
H   0.526923045455  1.351201181818  1.741998500000
H   0.209398045455 -0.370164818182  2.056459500000
C  -0.654467954545  0.315247181818 -0.545646500000
C  -1.739907954545 -0.717010818182 -0.017056500000
H  -0.645959954545  0.271892181818 -1.640731500000
H  -1.443720954545 -1.070351818182  0.976041500000
H  -1.767440954545 -1.570497818182 -0.702515500000
H  -3.342256954545  0.759608181818  0.996427500000
H  -3.695687954545  0.319516181818 -0.982507500000
B  -3.040789954545  0.151838181818  0.007583500000
H  -0.926171954545  1.347374181818 -0.269212500000
22
Step 98: E=-261.08900924
C   0.789992954545  0.077050681818 -0.013820363636
C   1.724139954545  1.088670681818 -0.722900363636
H   1.403271954545  2.117606681818 -0.519782363636
H   2.753781954545  0.970984681818 -0.364782363636
H   1.714072954545  0.928193681818 -1.807603363636
C   1.260382954545 -1.358692318182 -0.333141363636
H   0.625667954545 -2.100175318182  0.163179636364
H   1.230449954545 -1.541740318182 -1.414156363636
H   2.291219954545 -1.501808318182  0.012445636364
C   0.849629954545  0.329570681818  1.510054636364
H   1.876767954545  0.202508681818  1.872023636364
H   0.525522954545  1.351360681818  1.741494636364
H   0.208290954545 -0.370026318182  2.056103636364
C  -0.654427045455  0.314641681818 -0.546559363636
C  -1.739919045455 -0.717675318182 -0.017996363636
H  -0.645503045455  0.270861681818 -1.641623363636
H  -1.442848045455 -1.072445318182  0.974419636364
H  -1.768825045455 -1.570369318182 -0.704536363636
H  -3.339548045455  0.759743681818  0.999024636364
H  -3.695791045455  0.322222681818 -0.980210363636
B  -3.039936045455  0.152622681818  0.009068636364
H  -0.926395045455  1.346893681818 -0.270702363636
22
Step 97: E=-261.088948676
C   0.788973181818  0.076517363636 -0.014725181818
C   1.723615181818  1.088890363636 -0.722072181818
H   1.400769181818  2.117532363636 -0.520626181818
H   2.752438181818  0.972924363636 -0.361073181818
H   1.716728181818  0.927556363636 -1.806667181818
C   1.262502181818 -1.358796636364 -0.331394181818
H   0.626999181818 -2.100860636364  0.163038818182
H   1.236735181818 -1.542538636364 -1.412386181818
H   2.292261181818 -1.500260636364  0.018027818182
C   0.843688181818  0.330643363636  1.509057818182
H   1.869921181818  0.205461363636  1.874210818182
H   0.517385181818  1.352184363636  1.738483818182
H   0.201725181818 -0.369310636364  2.053912818182
C  -0.654167818182  0.311131363636 -0.551863181818
C  -1.740320818182 -0.721172636364 -0.023437181818
H  -0.642681818182  0.264802363636 -1.646741181818
H  -1.438495818182 -1.084379636364  0.964353818182
H  -1.777681818182 -1.568683636364 -0.715751181818
H  -3.323046818182  0.759933363636  1.013458818182
H  -3.695394818182  0.337353363636 -0.966027181818
B  -3.034417818182  0.156953363636  0.017814818182
H  -0.927533818182  1.344119363636 -0.279595181818
22
Step 96: E=-261.088888035
C   0.787946318182  0.075980500000 -0.015634181818
C   1.723079318182  1.089119500000 -0.721229181818
H   1.398266318182  2.117465500000 -0.521420181818
H   2.751089318182  0.974853500000 -0.357374181818
H   1.719350318182  0.926960500000 -1.805722181818
C   1.264616318182 -1.358897500000 -0.329671181818
H   0.628349318182 -2.101548500000  0.162892818182
H   1.242974318182 -1.543328500000 -1.410640181818
H   2.293312318182 -1.498702500000  0.023546818182
C   0.837738318182  0.331681500000  1.508060818182
H   1.863069318182  0.208368500000  1.876388818182
H   0.509247318182  1.352969500000  1.735499818182
H   0.195159318182 -0.368642500000  2.051711818182
C  -0.653907681818  0.307619500000 -0.557173181818
C  -1.740721681818 -0.724653500000 -0.028852181818
H  -0.639861681818  0.258718500000 -1.651863181818
H  -1.434133681818 -1.096284500000  0.954312818182
H  -1.786569681818 -1.566985500000 -0.726924181818
H  -3.306459681818  0.760230500000  1.027853818182
H  -3.695014681818  0.352418500000 -0.951820181818
B  -3.028868681818  0.161305500000  0.026567818182
H  -0.928660681818  1.341351500000 -0.288511181818
22
Step 95: E=-261.088827533
C   0.786896136364  0.075442000000 -0.016542636364
C   1.722518136364  1.089365000000 -0.720358636364
H   1.395726136364  2.117403000000 -0.522200636364
H   2.749690136364  0.976815000000 -0.353623636364
H   1.721982136364  0.926392000000 -1.804736636364
C   1.266742136364 -1.358975000000 -0.327937636364
H   0.629756136364 -2.102248000000  0.162749363636
H   1.249240136364 -1.544081000000 -1.408860636364
H   2.294355136364 -1.497082000000  0.029072363636
C   0.831715136364  0.332694000000  1.507042363636
H   1.856113136364  0.211271000000  1.878573363636
H   0.501011136364  1.353711000000  1.732482363636
H   0.188513136364 -0.368021000000  2.049451363636
C  -0.653631863636  0.304081000000 -0.562521636364
C  -1.741176863636 -0.728019000000 -0.034178636364
H  -0.636983863636  0.252460000000 -1.657001636364
H  -1.429934863636 -1.107943000000  0.944272363636
H  -1.795576863636 -1.565151000000 -0.737757636364
H  -3.289677863636  0.760557000000  1.041933363636
H  -3.694374863636  0.367139000000 -0.937507636364
B  -3.023164863636  0.165601000000  0.035292363636
H  -0.929736863636  1.338589000000 -0.297641636364
22
Step 94: E=-261.088767244
C   0.785830090909  0.074903136364 -0.017448681818
C   1.721937090909  1.089620136364 -0.719472681818
H   1.393176090909  2.117345136364 -0.522948681818
H   2.748262090909  0.978774136364 -0.349869681818
H   1.724587090909  0.925858136364 -1.803728681818
C   1.268858090909 -1.359036863636 -0.326212681818
H   0.631203090909 -2.102952863636  0.162617318182
H   1.255458090909 -1.544807863636 -1.407074681818
H   2.295390090909 -1.495422863636  0.034542318182
C   0.825668090909  0.333671136364  1.506013318182
H   1.849120090909  0.214125136364  1.880743318182
H   0.492766090909  1.354408136364  1.729469318182
H   0.181838090909 -0.367443863636  2.047160318182
C  -0.653350909091  0.300545136364 -0.567874681818
C  -1.741674909091 -0.731305863636 -0.039463681818
H  -0.634076909091  0.246144136364 -1.662131681818
H  -1.425842909091 -1.119495863636  0.934190318182
H  -1.804695909091 -1.563177863636 -0.748427681818
H  -3.272719909091  0.760902136364  1.055835318182
H  -3.693596909091  0.381646136364 -0.923084681818
B  -3.017354909091  0.169863136364  0.044018318182
H  -0.930780909091  1.335838136364 -0.306851681818
22
Step 93: E=-261.088707297
C   0.784747000000  0.074363000000 -0.018352818182
C   1.721332000000  1.089888000000 -0.718569818182
H   1.390612000000  2.117292000000 -0.523666818182
H   2.746803000000  0.980736000000 -0.346109818182
H   1.727164000000  0.925359000000 -1.802697818182
C   1.270967000000 -1.359084000000 -0.324496818182
H   0.632690000000 -2.103663000000  0.162497181818
H   1.261634000000 -1.545510000000 -1.405283818182
H   2.296418000000 -1.493723000000  0.039959181818
C   0.819596000000  0.334611000000  1.504973181818
H   1.842085000000  0.216933000000  1.882901181818
H   0.484504000000  1.355060000000  1.726457181818
H   0.175135000000 -0.366915000000  2.044834181818
C  -0.653064000000  0.297008000000 -0.573236818182
C  -1.742212000000 -0.734513000000 -0.044701818182
H  -0.631140000000  0.239763000000 -1.667253818182
H  -1.421858000000 -1.130925000000  0.924081181818
H  -1.813913000000 -1.561081000000 -0.758918818182
H  -3.255590000000  0.761275000000  1.069555181818
H  -3.692678000000  0.395934000000 -0.908559818182
B  -3.011438000000  0.174095000000  0.052743181818
H  -0.931794000000  1.333097000000 -0.316152818182
22
Step 92: E=-261.088647869
C   0.783642454545  0.073823181818 -0.019248363636
C   1.720700454545  1.090163181818 -0.717653363636
H   1.388042454545  2.117242181818 -0.524356363636
H   2.745305454545  0.982689181818 -0.342360363636
H   1.729697454545  0.924893181818 -1.801643363636
C   1.273060454545 -1.359109818182 -0.322779363636
H   0.634227454545 -2.104376818182  0.162416636364
H   1.267738454545 -1.546183818182 -1.403468363636
H   2.297432454545 -1.491972818182  0.045312636364
C   0.813512454545  0.335516181818  1.503921636364
H   1.835024454545  0.219692181818  1.885030636364
H   0.476254454545  1.355669181818  1.723448636364
H   0.168420454545 -0.366430818182  2.042481636364
C  -0.652770545455  0.293477181818 -0.578589363636
C  -1.742819545455 -0.737614818182 -0.049904363636
H  -0.628161545455  0.233332181818 -1.672346363636
H  -1.418045545455 -1.142252818182  0.913868636364
H  -1.823304545455 -1.558755818182 -0.769229363636
H  -3.238222545455  0.761610181818  1.083039636364
H  -3.691579545455  0.409956181818 -0.893877363636
B  -3.005382545455  0.178268181818  0.061465636364
H  -0.932772545455  1.330365181818 -0.325529363636
22
Step 91: E=-261.088589001
C   0.782532045455  0.073281636364 -0.020141681818
C   1.720054045455  1.090447636364 -0.716728681818
H   1.385470045455  2.117198636364 -0.525006681818
H   2.743803045455  0.984633636364 -0.338628681818
H   1.732190045455  0.924461636364 -1.800584681818
C   1.275150045455 -1.359133363636 -0.321074681818
H   0.635786045455 -2.105089363636  0.162351318182
H   1.273792045455 -1.546857363636 -1.401665681818
H   2.298460045455 -1.490210363636  0.050608318182
C   0.807429045455  0.336395636364  1.502872318182
H   1.827971045455  0.222420636364  1.887146318182
H   0.468008045455  1.356246636364  1.720469318182
H   0.161722045455 -0.365988363636  2.040128318182
C  -0.652478954545  0.289941636364 -0.583945681818
C  -1.743428954545 -0.740705363636 -0.055085681818
H  -0.625182954545  0.226874636364 -1.677438681818
H  -1.414230954545 -1.153566363636  0.903673318182
H  -1.832735954545 -1.556414363636 -0.779509681818
H  -3.220754954545  0.762066636364  1.096475318182
H  -3.690510954545  0.423898636364 -0.879173681818
B  -2.999298954545  0.182461636364  0.070186318182
H  -0.933744954545  1.327635636364 -0.334926681818
22
Step 90: E=-261.088530954
C   0.781399454545  0.072739500000 -0.021033000000
C   1.719378454545  1.090748500000 -0.715780000000
H   1.382851454545  2.117160500000 -0.525649000000
H   2.742246454545  0.986615500000 -0.334850000000
H   1.734686454545  0.924054500000 -1.799488000000
C   1.277252454545 -1.359132500000 -0.319348000000
H   0.637408454545 -2.105809500000  0.162314000000
H   1.279866454545 -1.547501500000 -1.399819000000
H   2.299484454545 -1.488380500000  0.055917000000
C   0.801280454545  0.337254500000  1.501804000000
H   1.820825454545  0.225167500000  1.889261000000
H   0.459657454545  1.356781500000  1.717457000000
H   0.154969454545 -0.365594500000  2.037727000000
C  -0.652170545455  0.286373500000 -0.589336000000
C  -1.744088545455 -0.743684500000 -0.060175000000
H  -0.622142545455  0.220222500000 -1.682538000000
H  -1.410584545455 -1.164635500000  0.893496000000
H  -1.842266545455 -1.553944500000 -0.789447000000
H  -3.203097545455  0.762559500000  1.109581000000
H  -3.689210545455  0.437508500000 -0.864409000000
B  -2.993070545455  0.186599500000  0.078859000000
H  -0.934675545455  1.324897500000 -0.344544000000
22
Step 89: E=-261.088473828
C   0.780251454545  0.072195409091 -0.021920181818
C   1.718677454545  1.091061409091 -0.714817181818
H   1.380210454545  2.117127409091 -0.526266181818
H   2.740656454545  0.988606409091 -0.331069181818
H   1.737152454545  0.923679409091 -1.798372181818
C   1.279354454545 -1.359117590909 -0.317620181818
H   0.639074454545 -2.106534590909  0.162299818182
H   1.285909454545 -1.548125590909 -1.397957181818
H   2.300508454545 -1.486509590909  0.061187818182
C   0.795108454545  0.338083409091  1.500723818182
H   1.813647454545  0.227897409091  1.891358818182
H   0.451273454545  1.357271409091  1.714443818182
H   0.148209454545 -0.365253590909  2.035300818182
C  -0.651854545455  0.282793409091 -0.594733181818
C  -1.744786545455 -0.746585590909 -0.065210181818
H  -0.619069545455  0.213478409091 -1.687625181818
H  -1.407053545455 -1.175578590909  0.883303818182
H  -1.851894545455 -1.551349590909 -0.799192181818
H  -3.185275545455  0.763086409091  1.122486818182
H  -3.687779545455  0.450909409091 -0.849573181818
B  -2.986741545455  0.190708409091  0.087512818182
H  -0.935578545455  1.322156409091 -0.354262181818
22
Step 88: E=-261.088417744
C   0.779087818182  0.071645318182 -0.022807727273
C   1.717946818182  1.091389318182 -0.713838727273
H   1.377537818182  2.117099318182 -0.526855727273
H   2.739028818182  0.990613318182 -0.327279727273
H   1.739587818182  0.923342318182 -1.797233727273
C   1.281460818182 -1.359088681818 -0.315893727273
H   0.640788818182 -2.107268681818  0.162298272727
H   1.291937818182 -1.548727681818 -1.396083727273
H   2.301534818182 -1.484597681818  0.066428272727
C   0.788906818182  0.338878318182  1.499630272727
H   1.806428818182  0.230618318182  1.893438272727
H   0.442834818182  1.357707318182  1.711428272727
H   0.141441818182 -0.364975681818  2.032842272727
C  -0.651531181818  0.279195318182 -0.600143727273
C  -1.745521181818 -0.749405681818 -0.070180727273
H  -0.615968181818  0.206624318182 -1.692705727273
H  -1.403637181818 -1.186363681818  0.873126272727
H  -1.861598181818 -1.548653681818 -0.808713727273
H  -3.167308181818  0.763655318182  1.135185272727
H  -3.686202181818  0.464110318182 -0.834684727273
B  -2.980310181818  0.194796318182  0.096143272727
H  -0.936447181818  1.319406318182 -0.364098727273
22
Step 87: E=-261.088362825
C   0.777905772727  0.071090318182 -0.023690454545
C   1.717178772727  1.091732318182 -0.712846454545
H   1.374833772727  2.117075318182 -0.527415454545
H   2.737354772727  0.992630318182 -0.323496454545
H   1.741975772727  0.923048318182 -1.796072454545
C   1.283570772727 -1.359041681818 -0.314161454545
H   0.642560772727 -2.108012681818  0.162321545455
H   1.297941772727 -1.549297681818 -1.394185454545
H   2.302558772727 -1.482633681818  0.071634545455
C   0.782686772727  0.339637318182  1.498520545455
H   1.799180772727  0.233332318182  1.895483545455
H   0.434356772727  1.358083318182  1.708406545455
H   0.134688772727 -0.364767681818  2.030359545455
C  -0.651197227273  0.275580318182 -0.605554454545
C  -1.746319227273 -0.752113681818 -0.075087454545
H  -0.612825227273  0.199662318182 -1.697756454545
H  -1.400403227273 -1.196997681818  0.862906545455
H  -1.871441227273 -1.545758681818 -0.817991454545
H  -3.149157227273  0.764204318182  1.147621545455
H  -3.684434227273  0.477068318182 -0.819699454545
B  -2.973749227273  0.198838318182  0.104748545455
H  -0.937267227273  1.316640318182 -0.374045454545
22
Step 86: E=-261.088309032
C   0.776719681818  0.070525272727 -0.024573227273
C   1.716384681818  1.092092272727 -0.711843227273
H   1.372098681818  2.117060272727 -0.527927227273
H   2.735663681818  0.994661272727 -0.319731227273
H   1.744312681818  0.922802272727 -1.794906227273
C   1.285698681818 -1.358991727273 -0.312440227273
H   0.644368681818 -2.108765727273  0.162338772727
H   1.303949681818 -1.549860727273 -1.392299227273
H   2.303607681818 -1.480653727273  0.076812772727
C   0.776460681818  0.340365272727  1.497411772727
H   1.791939681818  0.236057272727  1.897511772727
H   0.425830681818  1.358409272727  1.705408772727
H   0.127977681818 -0.364632727273  2.027877772727
C  -0.650861318182  0.271932272727 -0.610974227273
C  -1.747125318182 -0.754811727273 -0.079943227273
H  -0.609683318182  0.192609272727 -1.702810227273
H  -1.397182318182 -1.207581727273  0.852755772727
H  -1.881328318182 -1.542878727273 -0.827177227273
H  -3.130929318182  0.764913272727  1.159975772727
H  -3.682666318182  0.489968272727 -0.804745227273
B  -2.967160318182  0.202923272727  0.113332772727
H  -0.938076318182  1.313857272727 -0.384055227273
22
Step 85: E=-261.088256502
C   0.775515954545  0.069948318182 -0.025458000000
C   1.715540954545  1.092484318182 -0.710813000000
H   1.369273954545  2.117056318182 -0.528415000000
H   2.733902954545  0.996763318182 -0.315919000000
H   1.746632954545  0.922610318182 -1.793700000000
C   1.287872954545 -1.358918681818 -0.310701000000
H   0.646259954545 -2.109539681818  0.162346000000
H   1.310050954545 -1.550378681818 -1.390377000000
H   2.304675954545 -1.478602681818  0.082035000000
C   0.770162954545  0.341059318182  1.496278000000
H   1.784607954545  0.238853318182  1.899527000000
H   0.417126954545  1.358653318182  1.702378000000
H   0.121259954545 -0.364603681818  2.025348000000
C  -0.650503045455  0.268215318182 -0.616437000000
C  -1.747976045455 -0.757387681818 -0.084660000000
H  -0.606482045455  0.185271318182 -1.707869000000
H  -1.394145045455 -1.217856681818  0.842716000000
H  -1.891283045455 -1.539911681818 -0.835928000000
H  -3.112614045455  0.765679318182  1.171972000000
H  -3.680622045455  0.502594318182 -0.789824000000
B  -2.960439045455  0.206980318182  0.121839000000
H  -0.938820045455  1.311030318182 -0.394338000000
22
Step 84: E=-261.088205207
C   0.774299545455  0.069357000000 -0.026344045455
C   1.714645545455  1.092908000000 -0.709763045455
H   1.366378545455  2.117065000000 -0.528853045455
H   2.732089545455  0.998911000000 -0.312109045455
H   1.748892545455  0.922490000000 -1.792473045455
C   1.290081545455 -1.358829000000 -0.308970045455
H   0.648221545455 -2.110334000000  0.162329954545
H   1.316198545455 -1.550857000000 -1.388452045455
H   2.305765545455 -1.476504000000  0.087244954545
C   0.763840545455  0.341702000000  1.495130954545
H   1.777253545455  0.241675000000  1.901509954545
H   0.408324545455  1.358807000000  1.699351954545
H   0.114588545455 -0.364691000000  2.022795954545
C  -0.650133454545  0.264443000000 -0.621914045455
C  -1.748870454545 -0.759878000000 -0.089269045455
H  -0.603251454545  0.177739000000 -1.712914045455
H  -1.391244454545 -1.227953000000  0.832752954545
H  -1.901329454545 -1.536859000000 -0.844391045455
H  -3.094215454545  0.766527000000  1.183735954545
H  -3.678396454545  0.515068000000 -0.774918045455
B  -2.953623454545  0.211047000000  0.130302954545
H  -0.939515454545  1.308166000000 -0.404785045455
22
Step 83: E=-261.088155137
C   0.773071409091  0.068745909091 -0.027233863636
C   1.713687409091  1.093371909091 -0.708692863636
H   1.363387409091  2.117089909091 -0.529229863636
H   2.730212409091  1.001119909091 -0.308302863636
H   1.751076409091  0.922458909091 -1.791223863636
C   1.292335409091 -1.358724090909 -0.307256863636
H   0.650262409091 -2.111154090909  0.162271136364
H   1.322417409091 -1.551285090909 -1.386534863636
H   2.306885409091 -1.474354090909  0.092445136364
C   0.757493409091  0.342279909091  1.493969136364
H   1.769877409091  0.244530909091  1.903455136364
H   0.399397409091  1.358845909091  1.696337136364
H   0.107981409091 -0.364929090909  2.020219136364
C  -0.649753590909  0.260602909091 -0.627407863636
C  -1.749806590909 -0.762280090909 -0.093748863636
H  -0.599996590909  0.169973909091 -1.717942863636
H  -1.388487590909 -1.237836090909  0.822915136364
H  -1.911453590909 -1.533749090909 -0.852522863636
H  -3.075758590909  0.767488909091  1.195252136364
H  -3.675960590909  0.527408909091 -0.760060863636
B  -2.946708590909  0.215142909091  0.138715136364
H  -0.940159590909  1.305250909091 -0.415420863636
22
Step 82: E=-261.088106291
C   0.771827045455  0.068113272727 -0.028120863636
C   1.712645045455  1.093883272727 -0.707602863636
H   1.360286045455  2.117134272727 -0.529530863636
H   2.728254045455  1.003396272727 -0.304518863636
H   1.753147045455  0.922540272727 -1.789952863636
C   1.294640045455 -1.358593727273 -0.305558863636
H   0.652402045455 -2.111999727273  0.162169136364
H   1.328706045455 -1.551644727273 -1.384618863636
H   2.308034045455 -1.472139727273  0.097627136364
C   0.751139045455  0.342780272727  1.492794136364
H   1.762500045455  0.247419272727  1.905340136364
H   0.390358045455  1.358746272727  1.693342136364
H   0.101482045455 -0.365342727273  2.017630136364
C  -0.649360954545  0.256681272727 -0.632901863636
C  -1.750811954545 -0.764566727273 -0.098085863636
H  -0.596704954545  0.161943272727 -1.722924863636
H  -1.385946954545 -1.247509727273  0.813173136364
H  -1.921722954545 -1.530488727273 -0.860280863636
H  -3.057205954545  0.768546272727  1.206450136364
H  -3.673262954545  0.539580272727 -0.745236863636
B  -2.939663954545  0.219260272727  0.147065136364
H  -0.940739954545  1.302261272727 -0.426256863636
22
Step 81: E=-261.08805853
C   0.770577409091  0.067449727273 -0.029007681818
C   1.711515409091  1.094450727273 -0.706492681818
H   1.357056409091  2.117204727273 -0.529728681818
H   2.726234409091  1.005751727273 -0.300778681818
H   1.755081409091  0.922749727273 -1.788675681818
C   1.297016409091 -1.358454272727 -0.303903681818
H   0.654631409091 -2.112881272727  0.161981318182
H   1.335095409091 -1.551952272727 -1.382752681818
H   2.309251409091 -1.469889272727  0.102781318182
C   0.744791409091  0.343195727273  1.491626318182
H   1.755163409091  0.250356727273  1.907180318182
H   0.381189409091  1.358499727273  1.690409318182
H   0.095126409091 -0.365958272727  2.015057318182
C  -0.648977590909  0.252650727273 -0.638397681818
C  -1.751846590909 -0.766854272727 -0.102275681818
H  -0.593435590909  0.153661727273 -1.727891681818
H  -1.383466590909 -1.257060272727  0.803657318182
H  -1.932066590909 -1.527330272727 -0.867778681818
H  -3.038588590909  0.769951727273  1.217460318182
H  -3.670466590909  0.551753727273 -0.730577681818
B  -2.932571590909  0.223506727273  0.155341318182
H  -0.941310590909  1.299196727273 -0.437233681818
22
Step 80: E=-261.088011883
C   0.769309045455  0.066749363636 -0.029896318182
C   1.710253045455  1.095106363636 -0.705342318182
H   1.353609045455  2.117312363636 -0.529814318182
H   2.724085045455  1.008260363636 -0.297033318182
H   1.756870045455  0.923134363636 -1.787359318182
C   1.299501045455 -1.358281636364 -0.302276318182
H   0.657010045455 -2.113810636364  0.161680681818
H   1.341689045455 -1.552151636364 -1.380901318182
H   2.310534045455 -1.467545636364  0.107966681818
C   0.738401045455  0.343500363636  1.490444681818
H   1.747798045455  0.253403363636  1.908962681818
H   0.371754045455  1.358039363636  1.687501681818
H   0.088919045455 -0.366858636364  2.012462681818
C  -0.648583954545  0.248460363636 -0.643912318182
C  -1.752941954545 -0.769036636364 -0.106206318182
H  -0.590138954545  0.144910363636 -1.732820318182
H  -1.381229954545 -1.266233636364  0.794460681818
H  -1.942481954545 -1.524181636364 -0.874657318182
H  -3.019926954545  0.771651363636  1.227982681818
H  -3.667284954545  0.563736363636 -0.716155318182
B  -2.925328954545  0.227830363636  0.163460681818
H  -0.941814954545  1.296005363636 -0.448548318182
22
Step 79: E=-261.087966228
C   0.768024954545  0.066001681818 -0.030780727273
C   1.708837954545  1.095854681818 -0.704158727273
H   1.349936954545  2.117461681818 -0.529749727273
H   2.721809954545  1.010910681818 -0.293337727273
H   1.758444954545  0.923724681818 -1.786021727273
C   1.302091954545 -1.358081318182 -0.300713727273
H   0.659533954545 -2.114794318182  0.161235272727
H   1.348451954545 -1.552237318182 -1.379111727273
H   2.311895954545 -1.465128318182  0.113121272727
C   0.732017954545  0.343661681818  1.489265272727
H   1.740472954545  0.256511681818  1.910670272727
H   0.362115954545  1.357333681818  1.684669272727
H   0.082924954545 -0.368076318182  2.009877272727
C  -0.648200045455  0.244105681818 -0.649409727273
C  -1.754104045455 -0.771165318182 -0.109880727273
H  -0.586862045455  0.135744681818 -1.737682727273
H  -1.379207045455 -1.275126318182  0.785608272727
H  -1.952994045455 -1.521092318182 -0.880998727273
H  -3.001155045455  0.773787681818  1.238065272727
H  -3.663799045455  0.575627681818 -0.701995727273
B  -2.917955045455  0.232300681818  0.171426272727
H  -0.942284045455  1.292674681818 -0.460096727273
22
Step 78: E=-261.087921453
C   0.766722454545  0.065194818182 -0.031660818182
C   1.707234454545  1.096716818182 -0.702932818182
H   1.345983454545  2.117659818182 -0.529494818182
H   2.719382454545  1.013733818182 -0.289703818182
H   1.759752454545  0.924570818182 -1.784660818182
C   1.304813454545 -1.357853181818 -0.299235818182
H   0.662235454545 -2.115847181818  0.160599181818
H   1.355427454545 -1.552182181818 -1.377408818182
H   2.313358454545 -1.462630181818  0.118232181818
C   0.725650454545  0.343645818182  1.488095181818
H   1.733208454545  0.259691818182  1.912288181818
H   0.352236454545  1.356324818182  1.681936181818
H   0.077200454545 -0.369687181818  2.007313181818
C  -0.647835545455  0.239548818182 -0.654875818182
C  -1.755340545455 -0.773250181818 -0.113238818182
H  -0.583632545455  0.126099818182 -1.742458818182
H  -1.377427545455 -1.283682181818  0.777215181818
H  -1.963579545455 -1.518134181818 -0.886697818182
H  -2.982276545455  0.776494818182  1.247614181818
H  -3.659953545455  0.587444818182 -0.688215818182
B  -2.910439545455  0.236966818182  0.179180181818
H  -0.942720545455  1.289172818182 -0.471888818182
22
Step 77: E=-261.087877425
C   0.765397772727  0.064320863636 -0.032527500000
C   1.705397772727  1.097715863636 -0.701655500000
H   1.341696772727  2.117916863636 -0.528999500000
H   2.716767772727  1.016753863636 -0.286153500000
H   1.760719772727  0.925734863636 -1.783271500000
C   1.307687772727 -1.357580136364 -0.297861500000
H   0.665145772727 -2.116976136364  0.159729500000
H   1.362644772727 -1.551934136364 -1.375804500000
H   2.314927772727 -1.460034136364  0.123286500000
C   0.719330772727  0.343411863636  1.486944500000
H   1.726044772727  0.262948863636  1.913786500000
H   0.342107772727  1.354936863636  1.679336500000
H   0.071842772727 -0.371766136364  2.004799500000
C  -0.647500227273  0.234749863636 -0.660278500000
C  -1.756679227273 -0.775273136364 -0.116217500000
H  -0.580460227273  0.115885863636 -1.747089500000
H  -1.375978227273 -1.291845136364  0.769375500000
H  -1.974264227273 -1.515292136364 -0.891628500000
H  -2.963249227273  0.779885863636  1.256457500000
H  -3.655699227273  0.599137863636 -0.674922500000
B  -2.902758227273  0.241861863636  0.186647500000
H  -0.943123227273  1.285439863636 -0.483953500000
22
Step 76: E=-261.087833846
C   0.764064500000  0.063358454545 -0.033370818182
C   1.703306500000  1.098873454545 -0.700319818182
H   1.337035500000  2.118247454545 -0.528205818182
H   2.713975500000  1.020004454545 -0.282719818182
H   1.761284500000  0.927255454545 -1.781863818182
C   1.310756500000 -1.357280545455 -0.296632818182
H   0.668291500000 -2.118208545455  0.158558181818
H   1.370153500000 -1.551495545455 -1.374370818182
H   2.316671500000 -1.457359545455  0.128253181818
C   0.713083500000  0.342927454545  1.485847181818
H   1.719047500000  0.266329454545  1.915180181818
H   0.331668500000  1.353120454545  1.676946181818
H   0.066944500000 -0.374408545455  2.002372181818
C  -0.647216500000  0.229660454545 -0.665603818182
C  -1.758095500000 -0.777341545455 -0.118751818182
H  -0.577411500000  0.105063454545 -1.751604818182
H  -1.374748500000 -1.299591545455  0.762311181818
H  -1.984978500000 -1.512876545455 -0.895768818182
H  -2.944178500000  0.784295454545  1.264596181818
H  -3.651118500000  0.610831454545 -0.662358818182
B  -2.894995500000  0.247109454545  0.193754181818
H  -0.943540500000  1.281485454545 -0.496246818182
22
Step 75: E=-261.087790444
C   0.762715363636  0.062299863636 -0.034186818182
C   1.700892363636  1.100236863636 -0.698895818182
H   1.331888363636  2.118669863636 -0.527048818182
H   2.710932363636  1.023558863636 -0.279389818182
H   1.761374363636  0.929243863636 -1.780407818182
C   1.314056363636 -1.356922136364 -0.295570818182
H   0.671740363636 -2.119555136364  0.157020181818
H   1.378032363636 -1.550775136364 -1.373108818182
H   2.318592363636 -1.454557136364  0.133128181818
C   0.706921363636  0.342118863636  1.484798181818
H   1.712227363636  0.269830863636  1.916421181818
H   0.320852363636  1.350747863636  1.674782181818
H   0.062608363636 -0.377763136364  2.000036181818
C  -0.646973636364  0.224247863636 -0.670813818182
C  -1.759619636364 -0.779358136364 -0.120716818182
H  -0.574482636364  0.093497863636 -1.755914818182
H  -1.373943636364 -1.306703136364  0.756186181818
H  -1.995640636364 -1.510806136364 -0.898785818182
H  -2.925214636364  0.789680863636  1.271701181818
H  -3.645942636364  0.622388863636 -0.650747818182
B  -2.887098636364  0.252680863636  0.200348181818
H  -0.943917636364  1.277236863636 -0.508833818182
22
Step 74: E=-261.08774671