     22
Step 1: E=-261.049163278
  C       0.6740470      0.0140730     -0.0045210
  C       1.2607900      1.3967250     -0.3753750
  H       0.6649240      2.1951330      0.0773370
  H       2.2947650      1.4775610     -0.0197500
  H       1.2569080      1.5348440     -1.4633290
  C       1.5538070     -1.0937030     -0.6465020
  H       1.1601340     -2.0869370     -0.4008920
  H       1.5717550     -0.9865360     -1.7375360
  H       2.5829620     -1.0228710     -0.2748110
  C       0.6976410     -0.1584320      1.5296810
  H       1.7216460     -0.0143850      1.8926550
  H       0.0512030      0.5774720      2.0171190
  H       0.3794640     -1.1653940      1.8251440
  C      -0.7368620     -0.1044530     -0.6106120
  C      -1.7545440     -0.9337020     -0.0505550
  H      -0.7263740     -0.0453310     -1.6965680
  H      -1.6127830     -1.3824380      0.9256060
  H      -2.4760660     -1.4213670     -0.6962280
  B      -1.9991290      0.9116830     -0.0084260
  H      -1.5929000      1.5108860      0.9398450
  H      -2.5854580      1.3938920     -0.9293010
  H      -2.8638110      0.1540100      0.5301480
     22
Step 2: E=-261.04929077
  C       0.6926960      0.0115630      0.0052460
  C       1.2797780      1.3944210     -0.3651900
  H       0.6837360      2.1926890      0.0876720
  H       2.3138550      1.4755530     -0.0097460
  H       1.2755980      1.5327050     -1.4531220
  C       1.5725830     -1.0958850     -0.6362440
  H       1.1788200     -2.0892760     -0.3910290
  H       1.5904270     -0.9885200     -1.7272790
  H       2.6018950     -1.0257730     -0.2646910
  C       0.7164070     -0.1604950      1.5396870
  H       1.7404200     -0.0166430      1.9028110
  H       0.0701940      0.5755870      2.0272320
  H       0.3981410     -1.1674210      1.8354200
  C      -0.7199150     -0.1009000     -0.6000420
  C      -1.7407960     -0.9349540     -0.0373900
  H      -0.7063370     -0.0536540     -1.6867580
  H      -1.5901550     -1.3912470      0.9342390
  H      -2.4529740     -1.4315440     -0.6871190
  B      -1.9729820      0.9094550     -0.0022940
  H      -1.5885090      1.5031330      0.9584200
  H      -2.5797580      1.3871750     -0.9121650
  H      -2.8240930      0.1149240      0.5296220
     22
Step 3: E=-261.049706617
  C       0.6925620      0.0111620      0.0049370
  C       1.2799610      1.3942410     -0.3651140
  H       0.6837850      2.1923860      0.0879200
  H       2.3141390      1.4756350     -0.0098410
  H       1.2754860      1.5327010     -1.4530190
  C       1.5725870     -1.0959480     -0.6360860
  H       1.1787590     -2.0895030     -0.3912620
  H       1.5903250     -0.9883710     -1.7271210
  H       2.6020500     -1.0265200     -0.2646640
  C       0.7163680     -0.1604460      1.5396110
  H       1.7403790     -0.0167860      1.9029060
  H       0.0703500      0.5757940      2.0272540
  H       0.3980060     -1.1673410      1.8355860
  C      -0.7215660     -0.0954120     -0.5996330
  C      -1.7460540     -0.9341770     -0.0342580
  H      -0.7050150     -0.0596890     -1.6869530
  H      -1.5858690     -1.3984310      0.9324280
  H      -2.4482430     -1.4398390     -0.6884130
  B      -1.9659380      0.9097390     -0.0061130
  H      -1.6025310      1.4974420      0.9663120
  H      -2.5923750      1.3823700     -0.9051850
  H      -2.8028310      0.0771460      0.5189160
     22
Step 4: E=-261.050452528
  C       0.6924430      0.0107580      0.0046480
  C       1.2801170      1.3940740     -0.3650500
  H       0.6837820      2.1920820      0.0881420
  H       2.3143930      1.4757250     -0.0099370
  H       1.2753700      1.5326870     -1.4529330
  C       1.5726010     -1.0960170     -0.6359390
  H       1.1787300     -2.0897330     -0.3914660
  H       1.5902320     -0.9882500     -1.7269730
  H       2.6022030     -1.0272310     -0.2646360
  C       0.7163390     -0.1604070      1.5395430
  H       1.7403500     -0.0169120      1.9029960
  H       0.0705100      0.5759840      2.0272800
  H       0.3978900     -1.1672680      1.8357480
  C      -0.7229820     -0.0900690     -0.5993220
  C      -1.7515170     -0.9335720     -0.0310260
  H      -0.7035890     -0.0656430     -1.6870450
  H      -1.5809340     -1.4061280      0.9302090
  H      -2.4429590     -1.4483590     -0.6900070
  B      -1.9591610      0.9104970     -0.0098220
  H      -1.6161020      1.4917080      0.9734430
  H      -2.6044650      1.3774280     -0.8981280
  H      -2.7813840      0.0387370      0.5082420
     22
Step 5: E=-261.051552009
  C       0.6923300      0.0103620      0.0043710
  C       1.2802690      1.3939120     -0.3649940
  H       0.6837810      2.1917860      0.0883630
  H       2.3146360      1.4758170     -0.0100300
  H       1.2752560      1.5326800     -1.4528550
  C       1.5726170     -1.0960890     -0.6358000
  H       1.1787220     -2.0899650     -0.3916660
  H       1.5901560     -0.9881320     -1.7268320
  H       2.6023460     -1.0279070     -0.2645980
  C       0.7163140     -0.1603710      1.5394800
  H       1.7403250     -0.0170300      1.9030870
  H       0.0706630      0.5761600      2.0273090
  H       0.3977760     -1.1671940      1.8358960
  C      -0.7243070     -0.0847710     -0.5990450
  C      -1.7571000     -0.9331250     -0.0277340
  H      -0.7021390     -0.0714970     -1.6870630
  H      -1.5755460     -1.4141550      0.9276670
  H      -2.4372230     -1.4570640     -0.6918190
  B      -1.9524640      0.9115270     -0.0135080
  H      -1.6294870      1.4859170      0.9802470
  H      -2.6163010      1.3723820     -0.8910290
  H      -2.7601710      0.0002700      0.4977530
     22
Step 6: E=-261.053003432
  C       0.6922200      0.0099750      0.0041090
  C       1.2804220      1.3937540     -0.3649450
  H       0.6837950      2.1914990      0.0885860
  H       2.3148760      1.4759040     -0.0101250
  H       1.2751470      1.5326810     -1.4527820
  C       1.5726280     -1.0961660     -0.6356690
  H       1.1787250     -2.0902010     -0.3918650
  H       1.5900960     -0.9880190     -1.7266980
  H       2.6024680     -1.0285490     -0.2645470
  C       0.7162920     -0.1603370      1.5394190
  H       1.7403020     -0.0171410      1.9031750
  H       0.0708130      0.5763280      2.0273380
  H       0.3976560     -1.1671120      1.8360340
  C      -0.7255720     -0.0794870     -0.5987890
  C      -1.7627870     -0.9328800     -0.0243860
  H      -0.7006840     -0.0772560     -1.6869990
  H      -1.5696460     -1.4225550      0.9247750
  H      -2.4309720     -1.4660210     -0.6938590
  B      -1.9457990      0.9128470     -0.0171970
  H      -1.6427700      1.4800230      0.9867490
  H      -2.6279540      1.3671940     -0.8838420
  H      -2.7394640     -0.0381240      0.4875820
     22
Step 7: E=-261.054771382
  C       0.6921080      0.0096010      0.0038620
  C       1.2805810      1.3935990     -0.3649000
  H       0.6838310      2.1912190      0.0888210
  H       2.3151130      1.4759880     -0.0102220
  H       1.2750440      1.5326930     -1.4527140
  C       1.5726280     -1.0962500     -0.6355490
  H       1.1787410     -2.0904400     -0.3920680
  H       1.5900600     -0.9879130     -1.7265730
  H       2.6025530     -1.0291450     -0.2644720
  C       0.7162730     -0.1603040      1.5393600
  H       1.7402850     -0.0172430      1.9032530
  H       0.0709600      0.5764870      2.0273660
  H       0.3975250     -1.1670150      1.8361550
  C      -0.7268020     -0.0741450     -0.5985450
  C      -1.7686020     -0.9329640     -0.0209590
  H      -0.6992490     -0.0829340     -1.6868130
  H      -1.5630440     -1.4313970      0.9213530
  H      -2.4239470     -1.4753060     -0.6961660
  B      -1.9390460      0.9145370     -0.0209620
  H      -1.6561230      1.4739000      0.9929370
  H      -2.6394900      1.3617560     -0.8764180
  H      -2.7200870     -0.0761040      0.4781700
     22
Step 8: E=-261.056780897
  C       0.6919910      0.0092390      0.0036270
  C       1.2807540      1.3934410     -0.3648580
  H       0.6838960      2.1909430      0.0890680
  H       2.3153630      1.4760670     -0.0103240
  H       1.2749480      1.5327110     -1.4526490
  C       1.5726100     -1.0963430     -0.6354340
  H       1.1787520     -2.0906890     -0.3922780
  H       1.5900380     -0.9878130     -1.7264540
  H       2.6026070     -1.0297170     -0.2643740
  C       0.7162560     -0.1602700      1.5393020
  H       1.7402690     -0.0173420      1.9033270
  H       0.0711070      0.5766470      2.0273930
  H       0.3973810     -1.1669070      1.8362730
  C      -0.7280650     -0.0687200     -0.5982780
  C      -1.7744470     -0.9333520     -0.0174990
  H      -0.6978460     -0.0885840     -1.6865900
  H      -1.5559110     -1.4407250      0.9176820
  H      -2.4164550     -1.4850050     -0.6987460
  B      -1.9321910      0.9164950     -0.0248060
  H      -1.6695640      1.4676960      0.9991390
  H      -2.6511580      1.3562000     -0.8689200
  H      -2.7017370     -0.1134540      0.4693230
     22
Step 9: E=-261.058930502
  C       0.6918620      0.0088970      0.0034100
  C       1.2809510      1.3932790     -0.3648190
  H       0.6840130      2.1906670      0.0893430
  H       2.3156310      1.4761360     -0.0104360
  H       1.2748640      1.5327430     -1.4525850
  C       1.5725570     -1.0964510     -0.6353300
  H       1.1787570     -2.0909540     -0.3925030
  H       1.5900440     -0.9877240     -1.7263440
  H       2.6025910     -1.0302470     -0.2642320
  C       0.7162390     -0.1602310      1.5392430
  H       1.7402590     -0.0174350      1.9033840
  H       0.0712550      0.5768090      2.0274150
  H       0.3972090     -1.1667690      1.8363800
  C      -0.7293950     -0.0630820     -0.5979790
  C      -1.7803370     -0.9343380     -0.0139800
  H      -0.6965210     -0.0942250     -1.6862070
  H      -1.5478300     -1.4507540      0.9133710
  H      -2.4079480     -1.4953080     -0.7016860
  B      -1.9250670      0.9189200     -0.0288390
  H      -1.6833960      1.4610990      1.0051840
  H      -2.6630060      1.3502570     -0.8609990
  H      -2.6860650     -0.1494080      0.4619310
     22
Step 10: E=-261.061110248
  C       0.6917140      0.0085810      0.0032150
  C       1.2811830      1.3931070     -0.3647800
  H       0.6841980      2.1903890      0.0896580
  H       2.3159300      1.4761880     -0.0105620
  H       1.2747950      1.5327920     -1.4525200
  C       1.5724550     -1.0965790     -0.6352370
  H       1.1787450     -2.0912410     -0.3927510
  H       1.5900810     -0.9876490     -1.7262450
  H       2.6024880     -1.0307270     -0.2640350
  C       0.7162230     -0.1601870      1.5391840
  H       1.7402560     -0.0175250      1.9034190
  H       0.0714050      0.5769770      2.0274270
  H       0.3970060     -1.1665980      1.8364820
  C      -0.7308560     -0.0571820     -0.5976130
  C      -1.7861690     -0.9360760     -0.0104410
  H      -0.6953430     -0.0998500     -1.6856590
  H      -1.5387750     -1.4614920      0.9084460
  H      -2.3984270     -1.5062390     -0.7050110
  B      -1.9176100      0.9218580     -0.0331040
  H      -1.6976550      1.4541480      1.0111460
  H      -2.6751140      1.3439650     -0.8526630
  H      -2.6739160     -0.1833770      0.4564560
     22
Step 11: E=-261.063233271
  C       0.6915370      0.0083070      0.0030520
  C       1.2814650      1.3929250     -0.3647410
  H       0.6844840      2.1901120      0.0900220
  H       2.3162750      1.4762100     -0.0107040
  H       1.2747520      1.5328610     -1.4524520
  C       1.5722790     -1.0967280     -0.6351600
  H       1.1786980     -2.0915570     -0.3930250
  H       1.5901520     -0.9875940     -1.7261600
  H       2.6022640     -1.0311460     -0.2637650
  C       0.7162060     -0.1601310      1.5391230
  H       1.7402610     -0.0176140      1.9034260
  H       0.0715550      0.5771570      2.0274270
  H       0.3967620     -1.1663870      1.8365830
  C      -0.7324960     -0.0510230     -0.5971500
  C      -1.7918050     -0.9387540     -0.0069450
  H      -0.6944150     -0.1053640     -1.6849060
  H      -1.5287190     -1.4728900      0.9029170
  H      -2.3878940     -1.5177510     -0.7087390
  B      -1.9098340      0.9254030     -0.0376100
  H      -1.7122050      1.4469230      1.0169120
  H      -2.6873500      1.3373950     -0.8439560
  H      -2.6661400     -0.2147590      0.4533660
     22
Step 12: E=-261.065249859
  C       0.6913200      0.0080940      0.0029360
  C       1.2817890      1.3927410     -0.3646940
  H       0.6848770      2.1898550      0.0904520
  H       2.3166550      1.4761910     -0.0108560
  H       1.2747300      1.5329680     -1.4523740
  C       1.5720160     -1.0968900     -0.6351120
  H       1.1786260     -2.0918900     -0.3933330
  H       1.5902690     -0.9875500     -1.7261050
  H       2.6018940     -1.0314380     -0.2634150
  C       0.7161930     -0.1600700      1.5390640
  H       1.7402810     -0.0176970      1.9033900
  H       0.0716890      0.5773240      2.0274120
  H       0.3964950     -1.1661460      1.8366720
  C      -0.7343030     -0.0447270     -0.5965820
  C      -1.7971730     -0.9425060     -0.0035190
  H      -0.6939230     -0.1104610     -1.6838540
  H      -1.5178340     -1.4844520      0.8967550
  H      -2.3764710     -1.5293320     -0.7127450
  B      -1.9018360      0.9297230     -0.0423280
  H      -1.7263350      1.4396460      1.0218490
  H      -2.6988780      1.3307370     -0.8351120
  H      -2.6635280     -0.2436660      0.4531460
     22
Step 13: E=-261.067130448
  C       0.6910490      0.0079550      0.0028610
  C       1.2821840      1.3925480     -0.3646490
  H       0.6854410      2.1896340      0.0909320
  H       2.3171210      1.4760840     -0.0110320
  H       1.2747600      1.5330870     -1.4522940
  C       1.5716290     -1.0970740     -0.6350840
  H       1.1784530     -2.0922530     -0.3936590
  H       1.5903810     -0.9875340     -1.7260640
  H       2.6013590     -1.0316800     -0.2629820
  C       0.7161740     -0.1599830      1.5390100
  H       1.7403110     -0.0177820      1.9033250
  H       0.0718250      0.5775260      2.0273980
  H       0.3961850     -1.1658620      1.8367750
  C      -0.7363080     -0.0384200     -0.5958650
  C      -1.8021470     -0.9470770     -0.0002420
  H      -0.6938280     -0.1151470     -1.6826870
  H      -1.5063890     -1.4964210      0.8905710
  H      -2.3647690     -1.5412530     -0.7171240
  B      -1.8938740      0.9346330     -0.0470990
  H      -1.7398500      1.4328860      1.0265330
  H      -2.7100400      1.3244720     -0.8266490
  H      -2.6629330     -0.2709200      0.4540700
     22
Step 14: E=-261.068870986
  C       0.6907070      0.0079070      0.0028360
  C       1.2826530      1.3923510     -0.3646000
  H       0.6862110      2.1894740      0.0914830
  H       2.3176710      1.4758600     -0.0112320
  H       1.2748450      1.5332340     -1.4522050
  C       1.5710910     -1.0972730     -0.6350850
  H       1.1781560     -2.0926290     -0.3940120
  H       1.5904800     -0.9875360     -1.7260490
  H       2.6006220     -1.0318440     -0.2624600
  C       0.7161530     -0.1598690      1.5389650
  H       1.7403560     -0.0178630      1.9032180
  H       0.0719610      0.5777490      2.0273950
  H       0.3958410     -1.1655300      1.8368840
  C      -0.7384660     -0.0322110     -0.5950120
  C      -1.8066370     -0.9526400      0.0028490
  H      -0.6942480     -0.1192270     -1.6812740
  H      -1.4943750     -1.5085150      0.8840430
  H      -2.3525680     -1.5532120     -0.7217110
  B      -1.8860690      0.9403290     -0.0518750
  H      -1.7522810      1.4267110      1.0303320
  H      -2.7201090      1.3186270     -0.8186130
  H      -2.6654860     -0.2967870      0.4568090
     22
Step 15: E=-261.070466379
  C       0.6902790      0.0079510      0.0028560
  C       1.2831890      1.3921580     -0.3645420
  H       0.6871980      2.1894010      0.0921020
  H       2.3183050      1.4754900     -0.0114520
  H       1.2749820      1.5334110     -1.4521040
  C       1.5703910     -1.0974720     -0.6351170
  H       1.1777010     -2.0929980     -0.3943900
  H       1.5905260     -0.9875370     -1.7260580
  H       2.5996870     -1.0319520     -0.2618730
  C       0.7161280     -0.1597250      1.5389350
  H       1.7404170     -0.0179370      1.9030730
  H       0.0720980      0.5779880      2.0274280
  H       0.3954820     -1.1651610      1.8370020
  C      -0.7407370     -0.0262340     -0.5940280
  C      -1.8106970     -0.9590030      0.0057780
  H      -0.6951390     -0.1226240     -1.6797040
  H      -1.4820460     -1.5206360      0.8773950
  H      -2.3402060     -1.5651080     -0.7264370
  B      -1.8785640      0.9467660     -0.0565700
  H      -1.7631870      1.4215440      1.0332610
  H      -2.7288340      1.3135290     -0.8114270
  H      -2.6691830     -0.3225390      0.4603220
     22
Step 16: E=-261.071920209
  C       0.6897510      0.0080890      0.0029170
  C       1.2838040      1.3919670     -0.3644790
  H       0.6884560      2.1894410      0.0927870
  H       2.3190440      1.4749250     -0.0117050
  H       1.2751870      1.5336120     -1.4519930
  C       1.5695010     -1.0976700     -0.6351740
  H       1.1770200     -2.0933470     -0.3947910
  H       1.5904680     -0.9875330     -1.7260880
  H       2.5985340     -1.0320490     -0.2612330
  C       0.7160960     -0.1595400      1.5389240
  H       1.7404950     -0.0179990      1.9028880
  H       0.0722510      0.5782610      2.0275200
  H       0.3951040     -1.1647440      1.8371370
  C      -0.7431050     -0.0205740     -0.5929090
  C      -1.8142450     -0.9661150      0.0085020
  H      -0.6964600     -0.1253480     -1.6780110
  H      -1.4693940     -1.5328770      0.8705980
  H      -2.3276780     -1.5770070     -0.7312830
  B      -1.8714540      0.9539410     -0.0611240
  H      -1.7724600      1.4176590      1.0353900
  H      -2.7361870      1.3093830     -0.8052720
  H      -2.6738300     -0.3482460      0.4645300
     22
Step 17: E=-261.073238765
  C       0.6891090      0.0083210      0.0030180
  C       1.2844850      1.3917820     -0.3644040
  H       0.6899840      2.1896140      0.0935370
  H       2.3198780      1.4741420     -0.0119850
  H       1.2754500      1.5338420     -1.4518670
  C       1.5684050     -1.0978510     -0.6352580
  H       1.1760730     -2.0936490     -0.3952170
  H       1.5902600     -0.9875020     -1.7261400
  H       2.5971660     -1.0321610     -0.2605760
  C       0.7160570     -0.1593110      1.5389400
  H       1.7405900     -0.0180390      1.9026630
  H       0.0724200      0.5785610      2.0276950
  H       0.3947280     -1.1642860      1.8372910
  C      -0.7455570     -0.0153260     -0.5916550
  C      -1.8172740     -0.9739120      0.0110180
  H      -0.6981510     -0.1273780     -1.6762330
  H      -1.4565850     -1.5450550      0.8636190
  H      -2.3151210     -1.5887010     -0.7361300
  B      -1.8647900      0.9618420     -0.0655010
  H      -1.7798310      1.4154130      1.0366620
  H      -2.7419330      1.3064710     -0.8003860
  H      -2.6788710     -0.3741630      0.4691790
     22
Step 18: E=-261.07442981
  C       0.6883440      0.0086420      0.0031510
  C       1.2852430      1.3915970     -0.3643250
  H       0.6918420      2.1899400      0.0943490
  H       2.3208320      1.4730860     -0.0123150
  H       1.2757860      1.5340850     -1.4517340
  C       1.5670740     -1.0980200     -0.6353590
  H       1.1747790     -2.0939010     -0.3956700
  H       1.5898340     -0.9874410     -1.7262030
  H       2.5955620     -1.0323650     -0.2599120
  C       0.7160050     -0.1590220      1.5389890
  H       1.7407030     -0.0180530      1.9023980
  H       0.0726250      0.5789210      2.0279730
  H       0.3943400     -1.1637670      1.8374870
  C      -0.7481200     -0.0105070     -0.5902480
  C      -1.8196830     -0.9822490      0.0132650
  H      -0.7001050     -0.1288590     -1.6743950
  H      -1.4435750     -1.5575870      0.8566480
  H      -2.3026250     -1.6005600     -0.7410730
  B      -1.8585940      0.9703290     -0.0696630
  H      -1.7856990      1.4148510      1.0373990
  H      -2.7465370      1.3048310     -0.7966900
  H      -2.6836450     -0.3999590      0.4739230
     22
Step 19: E=-261.075503134
  C       0.6874440      0.0090560      0.0033220
  C       1.2860680      1.3914110     -0.3642380
  H       0.6940370      2.1904300      0.0952300
  H       2.3218970      1.4717320     -0.0126970
  H       1.2761830      1.5343460     -1.4515900
  C       1.5654830     -1.0981670     -0.6354790
  H       1.1730860     -2.0940800     -0.3961610
  H       1.5891410     -0.9873310     -1.7262800
  H       2.5937080     -1.0326880     -0.2592710
  C       0.7159380     -0.1586650      1.5390780
  H       1.7408360     -0.0180300      1.9020870
  H       0.0728670      0.5793470      2.0283660
  H       0.3939490     -1.1631810      1.8377340
  C      -0.7507740     -0.0061990     -0.5886960
  C      -1.8213830     -0.9911370      0.0152020
  H      -0.7022980     -0.1297770     -1.6724690
  H      -1.4305320     -1.5701610      0.8494900
  H      -2.2902130     -1.6122360     -0.7459250
  B      -1.8529280      0.9793770     -0.0735700
  H      -1.7899400      1.4161550      1.0373780
  H      -2.7497070      1.3046170     -0.7941740
  H      -2.6882850     -0.4254950      0.4788920
     22
Step 20: E=-261.076467801
  C       0.6864000      0.0095580      0.0035310
  C       1.2869470      1.3912190     -0.3641440
  H       0.6965610      2.1910830      0.0961770
  H       2.3230630      1.4700660     -0.0131430
  H       1.2766220      1.5346120     -1.4514360
  C       1.5636090     -1.0982910     -0.6356150
  H       1.1709500     -2.0941820     -0.3966960
  H       1.5881260     -0.9871570     -1.7263670
  H       2.5916000     -1.0331750     -0.2586830
  C       0.7158550     -0.1582330      1.5392150
  H       1.7409880     -0.0179580      1.9017320
  H       0.0731520      0.5798550      2.0288840
  H       0.3935580     -1.1625210      1.8380490
  C      -0.7535400     -0.0024190     -0.5869860
  C      -1.8223340     -1.0004480      0.0168060
  H      -0.7046340     -0.1302040     -1.6704830
  H      -1.4175450     -1.5828110      0.8422700
  H      -2.2780660     -1.6237170     -0.7506950
  B      -1.8477490      0.9888530     -0.0772240
  H      -1.7927910      1.4193590      1.0367790
  H      -2.7516970      1.3058790     -0.7927500
  H      -2.6921990     -0.4505720      0.4837940
     22
Step 21: E=-261.077333521
  C       0.6852080      0.0101430      0.0037860
  C       1.2878630      1.3910120     -0.3640440
  H       0.6994070      2.1918950      0.0971850
  H       2.3243160      1.4680800     -0.0136630
  H       1.2770830      1.5348700     -1.4512760
  C       1.5614280     -1.0983940     -0.6357630
  H       1.1683240     -2.0942030     -0.3972820
  H       1.5867350     -0.9869110     -1.7264620
  H       2.5892210     -1.0338650     -0.2581720
  C       0.7157520     -0.1577140      1.5394090
  H       1.7411570     -0.0178280      1.9013380
  H       0.0734880      0.5804690      2.0295320
  H       0.3931610     -1.1617720      1.8384520
  C      -0.7564220      0.0008210     -0.5851140
  C      -1.8224720     -1.0100830      0.0180390
  H      -0.7070570     -0.1301830     -1.6684390
  H      -1.4046920     -1.5955130      0.8350210
  H      -2.2662920     -1.6349310     -0.7553610
  B      -1.8430270      0.9986440     -0.0806230
  H      -1.7944380      1.4244210      1.0356640
  H      -2.7526480      1.3086110     -0.7922760
  H      -2.6952070     -0.4749540      0.4885690
     22
Step 22: E=-261.078110106
  C       0.6838680      0.0108060      0.0040960
  C       1.2887930      1.3907840     -0.3639410
  H       0.7025260      2.1928410      0.0982440
  H       2.3256260      1.4658040     -0.0142660
  H       1.2775290      1.5351030     -1.4511130
  C       1.5589210     -1.0984790     -0.6359250
  H       1.1651910     -2.0941440     -0.3979250
  H       1.5849300     -0.9865870     -1.7265660
  H       2.5865700     -1.0347800     -0.2577690
  C       0.7156260     -0.1571010      1.5396680
  H       1.7413400     -0.0176250      1.9009140
  H       0.0738750      0.5812060      2.0303080
  H       0.3927550     -1.1609250      1.8389620
  C      -0.7594440      0.0035010     -0.5830670
  C      -1.8217420     -1.0199430      0.0188740
  H      -0.7095210     -0.1297390     -1.6663470
  H      -1.3920540     -1.6081630      0.8277480
  H      -2.2550430     -1.6457370     -0.7599080
  B      -1.8387190      1.0086380     -0.0837730
  H      -1.7950020      1.4313400      1.0341050
  H      -2.7526830      1.3128710     -0.7926330
  H      -2.6970200     -0.4984220      0.4930870
     22
Step 23: E=-261.078806917
  C       0.6823850      0.0115350      0.0044660
  C       1.2897180      1.3905230     -0.3638420
  H       0.7059020      2.1939150      0.0993520
  H       2.3269850      1.4632360     -0.0149720
  H       1.2779290      1.5352930     -1.4509540
  C       1.5560660     -1.0985650     -0.6360940
  H       1.1614860     -2.0940140     -0.3986290
  H       1.5826630     -0.9861900     -1.7266720
  H       2.5836250     -1.0359720     -0.2574790
  C       0.7154720     -0.1563780      1.5400040
  H       1.7415350     -0.0173440      1.9004640
  H       0.0743200      0.5821000      2.0312100
  H       0.3923210     -1.1599510      1.8396150
  C      -0.7625340      0.0057080     -0.5808940
  C      -1.8201890     -1.0298630      0.0193180
  H      -0.7119320     -0.1289480     -1.6642110
  H      -1.3795470     -1.6209590      0.8205200
  H      -2.2442460     -1.6562490     -0.7643950
  B      -1.8347450      1.0187090     -0.0866910
  H      -1.7948230      1.4395660      1.0322070
  H      -2.7520680      1.3181810     -0.7935230
  H      -2.6977600     -0.5209920      0.4974420
     22
Step 24: E=-261.079433207
  C       0.6807700      0.0123230      0.0049100
  C       1.2906070      1.3902270     -0.3637490
  H       0.7094650      2.1950770      0.1004940
  H       2.3283530      1.4604300     -0.0157950
  H       1.2782330      1.5354240     -1.4508040
  C       1.5528560     -1.0986610     -0.6362720
  H       1.1572010     -2.0938200     -0.3993950
  H       1.5799130     -0.9857230     -1.7267820
  H       2.5803860     -1.0374620     -0.2573250
  C       0.7152870     -0.1555380      1.5404250
  H       1.7417370     -0.0169770      1.9000030
  H       0.0748260      0.5831780      2.0322240
  H       0.3918410     -1.1588350      1.8404310
  C      -0.7656850      0.0074480     -0.5785980
  C      -1.8177950     -1.0397950      0.0193610
  H      -0.7142880     -0.1278160     -1.6620420
  H      -1.3672250     -1.6336530      0.8132030
  H      -2.2339460     -1.6662250     -0.7687890
  B      -1.8310860      1.0287580     -0.0893700
  H      -1.7938710      1.4491090      1.0299700
  H      -2.7507890      1.3246150     -0.7948740
  H      -2.6973340     -0.5426070      0.5015920
     22
Step 25: E=-261.07999704
  C       0.6790430      0.0131560      0.0054330
  C       1.2914330      1.3898900     -0.3636690
  H       0.7131380      2.1962930      0.1016520
  H       2.3297000      1.4574500     -0.0167470
  H       1.2783970      1.5354780     -1.4506710
  C       1.5492900     -1.0987890     -0.6364550
  H       1.1523260     -2.0935750     -0.4002170
  H       1.5766730     -0.9852070     -1.7268920
  H       2.5768570     -1.0392790     -0.2573140
  C       0.7150700     -0.1545730      1.5409410
  H       1.7419410     -0.0165210      1.8995490
  H       0.0753940      0.5844650      2.0333340
  H       0.3912970     -1.1575580      1.8414370
  C      -0.7688560      0.0088110     -0.5762140
  C      -1.8146350     -1.0496380      0.0190300
  H      -0.7165260     -0.1263860     -1.6598650
  H      -1.3549420     -1.6463120      0.8057540
  H      -2.2240960     -1.6756730     -0.7731760
  B      -1.8276610      1.0386860     -0.0918330
  H      -1.7923080      1.4596070      1.0275120
  H      -2.7490390      1.3318900     -0.7965100
  H      -2.6957860     -0.5633410      0.5055860
     22
Step 26: E=-261.08050561
  C       0.6772240      0.0140230      0.0060420
  C       1.2921750      1.3895130     -0.3636100
  H       0.7168490      2.1975310      0.1028070
  H       2.3310000      1.4543600     -0.0178410
  H       1.2783800      1.5354420     -1.4505640
  C       1.5453760     -1.0989720     -0.6366380
  H       1.1468550     -2.0932950     -0.4010830
  H       1.5729480     -0.9846670     -1.7269960
  H       2.5730470     -1.0414550     -0.2574460
  C       0.7148150     -0.1534740      1.5415580
  H       1.7421390     -0.0159790      1.8991190
  H       0.0760250      0.5859880      2.0345220
  H       0.3906630     -1.1561010      1.8426520
  C      -0.7720060      0.0098880     -0.5737790
  C      -1.8107890     -1.0593360      0.0183500
  H      -0.7186100     -0.1246790     -1.6577000
  H      -1.3425940     -1.6589440      0.7980710
  H      -2.2146500     -1.6845550     -0.7776120
  B      -1.8244120      1.0484140     -0.0940890
  H      -1.7902140      1.4707850      1.0249020