22
Step 21: E=-261.05404389
C   0.780108954545 -0.149495045455 -0.061844000000
C   1.266736954545  1.275776954545 -0.431890000000
H   0.598922954545  2.030297954545 -0.007311000000
H   2.277986954545  1.432591954545 -0.039658000000
H   1.293363954545  1.404029954545 -1.520521000000
C   1.761589954545 -1.188775045455 -0.683141000000
H   1.450031954545 -2.208595045455 -0.433870000000
H   1.797516954545 -1.087570045455 -1.773893000000
H   2.768717954545 -1.018780045455 -0.285492000000
C   0.758181954545 -0.317635045455  1.471095000000
H   1.755152954545 -0.107819045455  1.874029000000
H   0.044366954545  0.377328954545  1.924828000000
H   0.486903954545 -1.341199045455  1.753057000000
C  -0.571734045455 -0.405497045455 -0.701711000000
C  -1.656323045455 -0.967633045455 -0.123280000000
H  -0.622413045455 -0.151168045455 -1.760146000000
H  -1.645206045455 -1.299268045455  0.908208000000
H  -2.518945045455 -1.250785045455 -0.716173000000
B  -2.445443045455  1.154117954545  0.126172000000
H  -1.587907045455  1.764217954545  0.695121000000
H  -2.702266045455  1.428299954545 -1.009905000000
H  -3.289345045455  0.627557954545  0.796325000000
22
Step 20: E=-261.054279384
C   0.776630000000 -0.145635000000 -0.060550000000
C   1.266718000000  1.278158000000 -0.431127000000
H   0.601869000000  2.034583000000 -0.005414000000
H   2.279082000000  1.431901000000 -0.040582000000
H   1.291946000000  1.406475000000 -1.519793000000
C   1.754978000000 -1.187401000000 -0.683044000000
H   1.441255000000 -2.206474000000 -0.433456000000
H   1.790094000000 -1.086230000000 -1.773821000000
H   2.762866000000 -1.019718000000 -0.286362000000
C   0.756033000000 -0.314230000000  1.472358000000
H   1.753614000000 -0.105385000000  1.874272000000
H   0.043256000000  0.381211000000  1.926902000000
H   0.484318000000 -1.337652000000  1.754407000000
C  -0.576068000000 -0.400041000000 -0.699599000000
C  -1.658070000000 -0.969870000000 -0.122692000000
H  -0.628342000000 -0.142461000000 -1.757079000000
H  -1.644356000000 -1.306107000000  0.907234000000
H  -2.519273000000 -1.255422000000 -0.716406000000
B  -2.431318000000  1.143839000000  0.121955000000
H  -1.576338000000  1.755879000000  0.692753000000
H  -2.690640000000  1.422345000000 -1.012587000000
H  -3.278254000000  0.622235000000  0.792631000000
22
Step 19: E=-261.054506288
C   0.773173090909 -0.141773000000 -0.059252954545
C   1.266738090909  1.280527000000 -0.430348954545
H   0.604916090909  2.038857000000 -0.003435954545
H   2.280234090909  1.431143000000 -0.041553954545
H   1.290500090909  1.408951000000 -1.519043954545
C   1.748367090909 -1.186019000000 -0.682946954545
H   1.432464090909 -2.204340000000 -0.433057954545
H   1.782672090909 -1.084866000000 -1.773746954545
H   2.757015090909 -1.020680000000 -0.287235954545
C   0.753911090909 -0.310837000000  1.473621045455
H   1.752101090909 -0.102965000000  1.874515045455
H   0.042176090909  0.385079000000  1.928980045455
H   0.481757090909 -1.334118000000  1.755747045455
C  -0.580393909091 -0.394561000000 -0.697491954545
C  -1.659798909091 -0.972053000000 -0.122129954545
H  -0.634130909091 -0.134037000000 -1.754081954545
H  -1.643504909091 -1.312716000000  0.906263045455
H  -2.519522909091 -1.260107000000 -0.716685954545
B  -2.417245909091  1.133520000000  0.117709045455
H  -1.564964909091  1.747589000000  0.690449045455
H  -2.679250909091  1.416493000000 -1.015192954545
H  -3.267211909091  0.616913000000  0.788922045455
22
Step 18: E=-261.054723814
C   0.769739000000 -0.137912954545 -0.057954000000
C   1.266788000000  1.282881045455 -0.429557000000
H   0.608041000000  2.043112045455 -0.001392000000
H   2.281428000000  1.430333045455 -0.042563000000
H   1.289031000000  1.411453045455 -1.518275000000
C   1.741764000000 -1.184628954545 -0.682849000000
H   1.423671000000 -2.202193954545 -0.432671000000
H   1.775257000000 -1.083480954545 -1.773670000000
H   2.751170000000 -1.021658954545 -0.288112000000
C   0.751817000000 -0.307457954545  1.474881000000
H   1.750616000000 -0.100572954545  1.874753000000
H   0.041136000000  0.388935045455  1.931067000000
H   0.479214000000 -1.330599954545  1.757075000000
C  -0.584712000000 -0.389056954545 -0.695393000000
C  -1.661511000000 -0.974177954545 -0.121595000000
H  -0.639771000000 -0.125911954545 -1.751164000000
H  -1.642659000000 -1.319086954545  0.905297000000
H  -2.519697000000 -1.264836954545 -0.717014000000
B  -2.403223000000  1.123168045455  0.113434000000
H  -1.553778000000  1.739337045455  0.688217000000
H  -2.668106000000  1.410754045455 -1.017716000000
H  -3.256215000000  0.611604045455  0.785201000000
22
Step 17: E=-261.054931177
C   0.766326090909 -0.134056954545 -0.056657045455
C   1.266857090909  1.285221045455 -0.428754045455
H   0.611213090909  2.047339045455  0.000699954545
H   2.282643090909  1.429485045455 -0.043592045455
H   1.287546090909  1.413973045455 -1.517489045455
C   1.735172090909 -1.183229954545 -0.682746045455
H   1.414888090909 -2.200034954545 -0.432287045455
H   1.767854090909 -1.082078954545 -1.773589045455
H   2.745335090909 -1.022644954545 -0.288991045455
C   0.749755090909 -0.304098954545  1.476136954545
H   1.749172090909 -0.098228954545  1.874977954545
H   0.040156090909  0.392782045455  1.933173954545
H   0.476680090909 -1.327097954545  1.758391954545
C  -0.589025909091 -0.383526954545 -0.693307045455
C  -1.663211909091 -0.976241954545 -0.121088045455
H  -0.645254909091 -0.118099954545 -1.748337045455
H  -1.641824909091 -1.325214954545  0.904338954545
H  -2.519798909091 -1.269607954545 -0.717392045455
B  -2.389244909091  1.112789045455  0.109127954545
H  -1.542771909091  1.731110045455  0.686066954545
H  -2.657202909091  1.405146045455 -1.020151045455
H  -3.245261909091  0.606318045455  0.781465954545
22
Step 16: E=-261.055127581
C   0.762937000000 -0.130212045455 -0.055361000000
C   1.266937000000  1.287545954545 -0.427939000000
H   0.614404000000  2.051529954545  0.002822000000
H   2.283861000000  1.428617954545 -0.044626000000
H   1.286055000000  1.416501954545 -1.516688000000
C   1.728599000000 -1.181821045455 -0.682639000000
H   1.406127000000 -2.197864045455 -0.431904000000
H   1.760466000000 -1.080662045455 -1.773502000000
H   2.739516000000 -1.023633045455 -0.289870000000
C   0.747731000000 -0.300764045455  1.477389000000
H   1.747779000000 -0.095956045455  1.875180000000
H   0.039260000000  0.396626954545  1.935311000000
H   0.474146000000 -1.323611045455  1.759697000000
C  -0.593336000000 -0.377970045455 -0.691235000000
C  -1.664905000000 -0.978241045455 -0.120609000000
H  -0.650575000000 -0.110610045455 -1.745610000000
H  -1.641010000000 -1.331094045455  0.903393000000
H  -2.519832000000 -1.274416045455 -0.717818000000
B  -2.375312000000  1.102387954545  0.104785000000
H  -1.531949000000  1.722899954545  0.684008000000
H  -2.646546000000  1.399678954545 -1.022496000000
H  -3.234353000000  0.601064954545  0.777712000000
22
Step 15: E=-261.055312218
C   0.759572136364 -0.126381090909 -0.054067909091
C   1.267021136364  1.289854909091 -0.427112909091
H   0.617593136364  2.055677909091  0.004962090909
H   2.285069136364  1.427744909091 -0.045651909091
H   1.284564136364  1.419034909091 -1.515870909091
C   1.722050136364 -1.180402090909 -0.682526909091
H   1.397395136364 -2.195683090909 -0.431522909091
H   1.753100136364 -1.079228090909 -1.773410909091
H   2.733716136364 -1.024618090909 -0.290750909091
C   0.745749136364 -0.297456090909  1.478636090909
H   1.746449136364 -0.093774090909  1.875354090909
H   0.038468136364  0.400476909091  1.937485090909
H   0.471603136364 -1.320140090909  1.760992090909
C  -0.597644863636 -0.372384090909 -0.689177909091
C  -1.666595863636 -0.980172090909 -0.120155909091
H  -0.655721863636 -0.103456090909 -1.742987909091
H  -1.640218863636 -1.336722090909  0.902463090909
H  -2.519799863636 -1.279259090909 -0.718288909091
B  -2.361424863636  1.091971909091  0.100400090909
H  -1.521313863636  1.714703909091  0.682048090909
H  -2.636140863636  1.394358909091 -1.024750909091
H  -3.223489863636  0.595851909091  0.773936090909
22
Step 14: E=-261.055484261
C   0.756233090909 -0.122569045455 -0.052779090909
C   1.267107090909  1.292144954545 -0.426274090909
H   0.620768090909  2.059778954545  0.007114909091
H   2.286260090909  1.426871954545 -0.046658090909
H   1.283078090909  1.421568954545 -1.515036090909
C   1.715528090909 -1.178973045455 -0.682412090909
H   1.388699090909 -2.193493045455 -0.431151090909
H   1.745762090909 -1.077773045455 -1.773315090909
H   2.727939090909 -1.025600045455 -0.291631090909
C   0.743814090909 -0.294179045455  1.479876909091
H   1.745190090909 -0.091698045455  1.875494909091
H   0.037794090909  0.404335954545  1.939697909091
H   0.469042090909 -1.316685045455  1.762278909091
C  -0.601953909091 -0.366766045455 -0.687133090909
C  -1.668285909091 -0.982033045455 -0.119722090909
H  -0.660690909091 -0.096646045455 -1.740477090909
H  -1.639454909091 -1.342096045455  0.901556909091
H  -2.519701909091 -1.284134045455 -0.718801090909
B  -2.347584909091  1.081547954545  0.095966909091
H  -1.510875909091  1.706525954545  0.680187909091
H  -2.625994909091  1.389184954545 -1.026918090909
H  -3.212671909091  0.590685954545  0.770132909091
22
Step 13: E=-261.055642854
C   0.752923909091 -0.118781909091 -0.051496045455
C   1.267192909091  1.294417090909 -0.425420045455
H   0.623926909091  2.063831090909  0.009284954545
H   2.287431909091  1.426004090909 -0.047642045455
H   1.281596909091  1.424105090909 -1.514181045455
C   1.709037909091 -1.177533909091 -0.682298045455
H   1.380041909091 -2.191294909091 -0.430799045455
H   1.738458909091 -1.076289909091 -1.773218045455
H   2.722188909091 -1.026583909091 -0.292512045455
C   0.741927909091 -0.290936909091  1.481111954545
H   1.744003909091 -0.089736909091  1.875599954545
H   0.037247909091  0.408208090909  1.941948954545
H   0.466461909091 -1.313246909091  1.763557954545
C  -0.606264090909 -0.361114909091 -0.685098045455
C  -1.669977090909 -0.983820909091 -0.119302045455
H  -0.665476090909 -0.090194909091 -1.738081045455
H  -1.638722090909 -1.347213909091  0.900683954545
H  -2.519541090909 -1.289038909091 -0.719344045455
B  -2.333795090909  1.071121090909  0.091475954545
H  -1.500654090909  1.698372090909  0.678433954545
H  -2.616112090909  1.384159090909 -1.029000045455
H  -3.201900090909  0.585571090909  0.766293954545
22
Step 12: E=-261.055787099
C   0.749645954545 -0.115022000000 -0.050219090909
C   1.267280954545  1.296668000000 -0.424548090909
H   0.627070954545  2.067833000000  0.011475909091
H   2.288586954545  1.425141000000 -0.048602090909
H   1.280120954545  1.426644000000 -1.513304090909
C   1.702582954545 -1.176085000000 -0.682188090909
H   1.371422954545 -2.189093000000 -0.430481090909
H   1.731198954545 -1.074771000000 -1.773123090909
H   2.716466954545 -1.027578000000 -0.293390090909
C   0.740093954545 -0.287731000000  1.482337909091
H   1.742893954545 -0.087892000000  1.875669909091
H   0.036828954545  0.412093000000  1.944229909091
H   0.463860954545 -1.309824000000  1.764830909091
C  -0.610576045455 -0.355426000000 -0.683071090909
C  -1.671670045455 -0.985534000000 -0.118886090909
H  -0.670071045455 -0.084111000000 -1.735801090909
H  -1.638020045455 -1.352078000000  0.899851909091
H  -2.519317045455 -1.293974000000 -0.719909090909
B  -2.320059045455  1.060699000000  0.086920909091
H  -1.490668045455  1.690259000000  0.676791909091
H  -2.606501045455  1.379274000000 -1.031002090909
H  -3.191173045455  0.580508000000  0.762415909091
22
Step 11: E=-261.055916028
C   0.746406000000 -0.111294090909 -0.048950045455
C   1.267375000000  1.298895909091 -0.423658045455
H   0.630202000000  2.071780909091  0.013690954545
H   2.289727000000  1.424283909091 -0.049534045455
H   1.278655000000  1.429187909091 -1.512402045455
C   1.696167000000 -1.174631090909 -0.682086045455
H   1.362837000000 -2.186888090909 -0.430209045455
H   1.723988000000 -1.073213090909 -1.773032045455
H   2.710778000000 -1.028593090909 -0.294267045455
C   0.738312000000 -0.284561090909  1.483552954545
H   1.741857000000 -0.086161090909  1.875705954545
H   0.036535000000  0.415991909091  1.946528954545
H   0.461240000000 -1.306417090909  1.766097954545
C  -0.614889000000 -0.349694090909 -0.681047045455
C  -1.673363000000 -0.987170090909 -0.118469045455
H  -0.674470000000 -0.078402090909 -1.733639045455
H  -1.637347000000 -1.356691090909  0.899068954545
H  -2.519027000000 -1.298934090909 -0.720488045455
B  -2.306378000000  1.050286909091  0.082295954545
H  -1.480947000000  1.682205909091  0.675272954545
H  -2.597170000000  1.374526909091 -1.032924045455
H  -3.180488000000  0.575489909091  0.758490954545
22
Step 10: E=-261.056028584
C   0.743208090909 -0.107603000000 -0.047693000000
C   1.267478090909  1.301100000000 -0.422749000000
H   0.633321090909  2.075672000000  0.015927000000
H   2.290856090909  1.423435000000 -0.050433000000
H   1.277207090909  1.431735000000 -1.511476000000
C   1.689791090909 -1.173176000000 -0.681994000000
H   1.354279090909 -2.184686000000 -0.429989000000
H   1.716830090909 -1.071616000000 -1.772947000000
H   2.705122090909 -1.029645000000 -0.295144000000
C   0.736583090909 -0.281427000000  1.484755000000
H   1.740890090909 -0.084536000000  1.875711000000
H   0.036360090909  0.419906000000  1.948833000000
H   0.458601090909 -1.303023000000  1.767361000000
C  -0.619201909091 -0.343911000000 -0.679025000000
C  -1.675050909091 -0.988729000000 -0.118046000000
H  -0.678666909091 -0.073070000000 -1.731598000000
H  -1.636698909091 -1.361060000000  0.898339000000
H  -2.518667909091 -1.303916000000 -0.721074000000
B  -2.292751909091  1.039895000000  0.077598000000
H  -1.471521909091  1.674233000000  0.673893000000
H  -2.588130909091  1.369916000000 -1.034763000000
H  -3.169835909091  0.570506000000  0.754514000000
22
Step 9: E=-261.056123617
C   0.740058045455 -0.103949000000 -0.046450000000
C   1.267592045455  1.303277000000 -0.421824000000
H   0.636418045455  2.079502000000  0.018174000000
H   2.291972045455  1.422601000000 -0.051294000000
H   1.275790045455  1.434282000000 -1.510528000000
C   1.683457045455 -1.171724000000 -0.681912000000
H   1.345744045455 -2.182488000000 -0.429825000000
H   1.709726045455 -1.069986000000 -1.772870000000
H   2.699502045455 -1.030745000000 -0.296019000000
C   0.734907045455 -0.278324000000  1.485940000000
H   1.739990045455 -0.083011000000  1.875687000000
H   0.036301045455  0.423841000000  1.951133000000
H   0.455945045455 -1.299639000000  1.768620000000
C  -0.623514954545 -0.338069000000 -0.677005000000
C  -1.676731954545 -0.990214000000 -0.117618000000
H  -0.682656954545 -0.068119000000 -1.729679000000
H  -1.636071954545 -1.365197000000  0.897659000000
H  -2.518241954545 -1.308917000000 -0.721666000000
B  -2.279177954545  1.029536000000  0.072827000000
H  -1.462415954545  1.666357000000  0.672683000000
H  -2.579388954545  1.365452000000 -1.036511000000
H  -3.159201954545  0.565534000000  0.750478000000
22
Step 8: E=-261.05619987
C   0.736957954545 -0.100335863636 -0.045226045455
C   1.267721954545  1.305427136364 -0.420887045455
H   0.639482954545  2.083266136364  0.020411954545
H   2.293068954545  1.421792136364 -0.052104045455
H   1.274422954545  1.436820136364 -1.509564045455
C   1.677164954545 -1.170281863636 -0.681838045455
H   1.337221954545 -2.180297863636 -0.429712045455
H   1.702678954545 -1.068329863636 -1.772797045455
H   2.693918954545 -1.031907863636 -0.296889045455
C   0.733283954545 -0.275248863636  1.487104954545
H   1.739155954545 -0.081582863636  1.875632954545
H   0.036355954545  0.427804136364  1.953416954545
H   0.453265954545 -1.296255863636  1.769877954545
C  -0.627829045455 -0.332156863636 -0.674990045455
C  -1.678402045455 -0.991627863636 -0.117187045455
H  -0.686432045455 -0.063546863636 -1.727888045455
H  -1.635459045455 -1.369115863636  0.897023954545
H  -2.517746045455 -1.313927863636 -0.722264045455
B  -2.265650045455  1.019228136364  0.067983954545
H  -1.453652045455  1.658588136364  0.671673954545
H  -2.570962045455  1.361143136364 -1.038155045455
H  -3.148569045455  0.560547136364  0.746374954545
22
Step 7: E=-261.056256
C   0.733910909091 -0.096765045455 -0.044026045455
C   1.267864909091  1.307547954545 -0.419946045455
H   0.642497909091  2.086959954545  0.022619954545
H   2.294140909091  1.421018954545 -0.052852045455
H   1.273122909091  1.439340954545 -1.508591045455
C   1.670914909091 -1.168853045455 -0.681768045455
H   1.328710909091 -2.178116045455 -0.429642045455
H   1.695690909091 -1.066662045455 -1.772727045455
H   2.688374909091 -1.033142045455 -0.297754045455
C   0.731708909091 -0.272195045455  1.488247954545
H   1.738383909091 -0.080248045455  1.875547954545
H   0.036525909091  0.431803954545  1.955680954545
H   0.450559909091 -1.292867045455  1.771134954545
C  -0.632148090909 -0.326164045455 -0.672983045455
C  -1.680055090909 -0.992977045455 -0.116760045455
H  -0.689987090909 -0.059355045455 -1.726232045455
H  -1.634856090909 -1.372833045455  0.896423954545
H  -2.517184090909 -1.318940045455 -0.722872045455
B  -2.252159090909  1.008990954545  0.063072954545
H  -1.445240090909  1.650928954545  0.670898954545
H  -2.562866090909  1.357005954545 -1.039679045455
H  -3.137912090909  0.555519954545  0.742204954545
22
Step 6: E=-261.056290577
C   0.730917090909 -0.093237909091 -0.042853909091
C   1.268020090909  1.309644090909 -0.419003909091
H   0.645454090909  2.090590090909  0.024783090909
H   2.295183090909  1.420289090909 -0.053534909091
H   1.271896090909  1.441839090909 -1.507614909091
C   1.664711090909 -1.167440909091 -0.681695909091
H   1.320221090909 -2.175946909091 -0.429602909091
H   1.688764090909 -1.064992909091 -1.772652909091
H   2.682874090909 -1.034447909091 -0.298607909091
C   0.730179090909 -0.269160909091  1.489365090909
H   1.737668090909 -0.079006909091  1.875432090909
H   0.036807090909  0.435845090909  1.957920090909
H   0.447817090909 -1.289469909091  1.772384090909
C  -0.636475909091 -0.320081909091 -0.670994909091
C  -1.681690909091 -0.994266909091 -0.116344909091
H  -0.693318909091 -0.055555909091 -1.724723909091
H  -1.634259909091 -1.376359909091  0.895852090909
H  -2.516558909091 -1.323944909091 -0.723494909091
B  -2.238697909091  0.998841090909  0.058097090909
H  -1.437181909091  1.643364090909  0.670390090909
H  -2.555110909091  1.353054090909 -1.041066909091
H  -3.127216909091  0.550447090909  0.737969090909
22
Step 5: E=-261.056302078
C   0.727978045455 -0.089745954545 -0.041713000000
C   1.268195045455  1.311718045455 -0.418073000000
H   0.648365045455  2.094174045455  0.026865000000
H   2.296203045455  1.419595045455 -0.054153000000
H   1.270768045455  1.444286045455 -1.506650000000
C   1.658558045455 -1.166030954545 -0.681614000000
H   1.311761045455 -2.173785954545 -0.429604000000
H   1.681923045455 -1.063313954545 -1.772570000000
H   2.677420045455 -1.035827954545 -0.299438000000
C   0.728675045455 -0.266145954545  1.490454000000
H   1.736986045455 -0.077852954545  1.875291000000
H   0.037176045455  0.439912045455  1.960144000000
H   0.445039045455 -1.286073954545  1.773601000000
C  -0.640818954545 -0.313901954545 -0.669029000000
C  -1.683303954545 -0.995504954545 -0.115939000000
H  -0.696438954545 -0.052160954545 -1.723369000000
H  -1.633657954545 -1.379710954545  0.895307000000
H  -2.515869954545 -1.328946954545 -0.724130000000
B  -2.225268954545  0.988783045455  0.053065000000
H  -1.429485954545  1.635882045455  0.670163000000
H  -2.547709954545  1.349293045455 -1.042300000000
H  -3.116492954545  0.545360045455  0.733692000000
22
Step 4: E=-261.056288848
C   0.725053909091 -0.086292954545 -0.040578045455
C   1.268303909091  1.313766045455 -0.417180045455
H   0.651150909091  2.097638045455  0.028941954545
H   2.297143909091  1.418912045455 -0.054807045455
H   1.269545909091  1.446735045455 -1.505727045455
C   1.652475909091 -1.164485954545 -0.681509045455
H   1.303367909091 -2.171492954545 -0.429651045455
H   1.675163909091 -1.061416954545 -1.772454045455
H   2.672020909091 -1.037082954545 -0.300192045455
C   0.727212909091 -0.263235954545  1.491549954545
H   1.736419909091 -0.077171954545  1.875132954545
H   0.037887909091  0.444107045455  1.962438954545
H   0.441933909091 -1.282692954545  1.774815954545
C  -0.645175090909 -0.307742954545 -0.667103045455
C  -1.684944090909 -0.996728954545 -0.115491045455
H  -0.699380090909 -0.049313954545 -1.722188045455
H  -1.633086090909 -1.382888954545  0.894859954545
H  -2.515117090909 -1.334103954545 -0.724726045455
B  -2.211795090909  0.978827045455  0.047896954545
H  -1.422019090909  1.628430045455  0.670102954545
H  -2.540442090909  1.345755045455 -1.043484045455
H  -3.105723090909  0.540481045455  0.729350954545
22
Step 3: E=-261.056249156
C   0.722253045455 -0.083037954545 -0.039604954545
C   1.268436045455  1.315704045455 -0.416252954545
H   0.653335045455  2.100925045455  0.030412045455
H   2.297776045455  1.418654045455 -0.054675954545
H   1.269140045455  1.448925045455 -1.504765954545
C   1.646453045455 -1.163444954545 -0.681507954545
H   1.295080045455 -2.169642954545 -0.429485954545
H   1.668337045455 -1.060303954545 -1.772469954545
H   2.666696045455 -1.038707954545 -0.301246954545
C   0.725850045455 -0.260130954545  1.492455045455
H   1.735684045455 -0.075004954545  1.874816045455
H   0.037735045455  0.447768045455  1.964298045455
H   0.440127045455 -1.279356954545  1.776129045455
C  -0.649510954545 -0.301335954545 -0.665201954545
C  -1.686704954545 -0.997648954545 -0.115252954545
H  -0.701915954545 -0.046457954545 -1.721100954545
H  -1.632763954545 -1.385828954545  0.894171045455
H  -2.514400954545 -1.338903954545 -0.725637954545
B  -2.198366954545  0.968883045455  0.042980045455
H  -1.414937954545  1.620789045455  0.670942045455
H  -2.533294954545  1.342756045455 -1.044110954545
H  -3.095005954545  0.535402045455  0.725112045455
22
Step 2: E=-261.056180964
C   0.719319045455 -0.079604000000 -0.038572045455
C   1.268588045455  1.317740000000 -0.415380045455
H   0.656213045455  2.104472000000  0.032332954545
H   2.298709045455  1.417851000000 -0.055236045455
H   1.268092045455  1.451249000000 -1.503866045455
C   1.640569045455 -1.161870000000 -0.681378045455
H   1.286872045455 -2.167381000000 -0.429758045455
H   1.662025045455 -1.058263000000 -1.772315045455
H   2.661410045455 -1.040060000000 -0.301749045455
C   0.724245045455 -0.257327000000  1.493437954545
H   1.734948045455 -0.074363000000  1.874563954545
H   0.038283045455  0.451736000000  1.966610954545
H   0.437007045455 -1.276157000000  1.777033954545
C  -0.653911954545 -0.295021000000 -0.663427045455
C  -1.688415954545 -0.998477000000 -0.114647045455
H  -0.704617954545 -0.044575000000 -1.720312045455
H  -1.632132954545 -1.388635000000  0.893848954545
H  -2.513612954545 -1.344124000000 -0.725915045455
B  -2.184816954545  0.959226000000  0.037657954545
H  -1.408126954545  1.613680000000  0.671262954545
H  -2.526814954545  1.339578000000 -1.044961045455
H  -3.083829954545  0.530325000000  0.720766954545
22
Step 1: E=-261.056082219
C   0.716730000000 -0.076420954545 -0.037504909091
C   1.268744000000  1.319621045455 -0.414422909091
H   0.658709000000  2.107590045455  0.034389090909
H   2.299590000000  1.417511045455 -0.055719909091
H   1.266978000000  1.453565045455 -1.502866909091
C   1.634521000000 -1.160605954545 -0.681350909091
H   1.278562000000 -2.165291954545 -0.429570909091
H   1.654851000000 -1.056816954545 -1.772292909091
H   2.656141000000 -1.041515954545 -0.302962909091
C   0.723209000000 -0.254468954545  1.494504090909
H   1.734709000000 -0.073494954545  1.874494090909
H   0.039285000000  0.455802045455  1.968825090909
H   0.434514000000 -1.272830954545  1.778357090909
C  -0.658343000000 -0.288295954545 -0.661337909091
C  -1.689938000000 -0.999651954545 -0.114335909091
H  -0.706402000000 -0.043054954545 -1.719467909091
H  -1.631824000000 -1.390735954545  0.893660090909
H  -2.512647000000 -1.349171954545 -0.726663909091
B  -2.171560000000  0.950065045455  0.031922090909
H  -1.402300000000  1.606423045455  0.672748090909
H  -2.520735000000  1.337330045455 -1.045873909091
H  -3.072794000000  0.524450045455  0.715472090909
22
Step 20: E=-261.056041204
C   0.716214199113 -0.070655478237 -0.035982854805
C   1.272251800663  1.322560593210 -0.417631459294
H   0.663803452788  2.113309694823  0.028834435471
H   2.302985680744  1.418808373425 -0.058198063258
H   1.271802331064  1.453694807164 -1.506394277283
C   1.623512258325 -1.163791483865 -0.678324286763
H   1.257998168250 -2.163947497966 -0.422170762527
H   1.639974931815 -1.063966212039 -1.769755876920
H   2.647952051933 -1.054109643545 -0.304794986621
C   0.723527978347 -0.240235895230  1.496806216042
H   1.739208517136 -0.073560081428  1.872272144096
H   0.052696875242  0.483826089261  1.968579405546
H   0.419253870228 -1.251844419129  1.788335930214
C  -0.654317636920 -0.285991426975 -0.663695166740
C  -1.684643496544 -1.007552624588 -0.127472665651
H  -0.700558705731 -0.033027213527 -1.720165832512
H  -1.628957684100 -1.406741116590  0.877616929527
H  -2.502707761527 -1.356376084900 -0.746406076119
B  -2.171172408998  0.942036275218  0.039917244465
H  -1.404480519439  1.586507744260  0.696569713288
H  -2.512029109469  1.346159080676 -1.034231933619
H  -3.072314792921  0.504896519981  0.716292223462
22
Step 19: E=-261.05591362
C   0.714076184544 -0.067604529477 -0.035399787046
C   1.272314789740  1.324676553187 -0.416804381448
H   0.665328437044  2.116203665726  0.030381511301
H   2.303377678922  1.419042332246 -0.057788973048
H   1.271550317457  1.456386766227 -1.505491203635
C   1.617463255783 -1.162872560813 -0.679102213292
H   1.248569162053 -2.161954593268 -0.423504702292
H   1.633114925650 -1.062246292255 -1.770484810010
H   2.642701069511 -1.057312723290 -0.306585885921
C   0.723193965508 -0.237545938972  1.497317289543
H   1.740026520894 -0.073848131292  1.870986238383
H   0.055383851884  0.488260067956  1.970555474030
H   0.416721853149 -1.248374469967  1.789261994600
C  -0.657044656902 -0.281920477850 -0.662637106477
C  -1.685195495919 -1.008245664660 -0.126218571492
H  -0.701028694722 -0.035341263674 -1.720586728094
H  -1.628184690130 -1.406118148065  0.879314018051
H  -2.500568736351 -1.362452115816 -0.745584943209
B  -2.160153374485  0.935551259170  0.036846397118
H  -1.404830496857  1.575034787240  0.711009875007
H  -2.494404134667  1.352058110328 -1.034638845341
H  -3.072411732106  0.498623367319  0.699155353271
22
Step 18: E=-261.055764068
C   0.711916078737 -0.064433445095 -0.034920265532
C   1.272624687719  1.326822650798 -0.415947848765
H   0.667185329893  2.119223774271  0.031899041533
H   2.303986586524  1.419133429337 -0.057227426982
H   1.271702212627  1.459136863616 -1.504558675022
C   1.611391161813 -1.161854501236 -0.679837685938
H   1.238991064486 -2.159828553267 -0.424903188631
H   1.626472827898 -1.060394234840 -1.771164288957
H   2.637338995733 -1.060525665582 -0.308123330829
C   0.722703862118 -0.234884847782  1.497708817467
H   1.740601433125 -0.073998045829  1.869705785885
H   0.057722738813  0.492462180917  1.972440997830
H   0.414233746219 -1.245029385884  1.789925514393
C  -0.659943770054 -0.277315393415 -0.661626595330
C  -1.685777587528 -1.008681567881 -0.124865024449
H  -0.701638775595 -0.037402178534 -1.721081170979
H  -1.627084787332 -1.405433041770  0.881005561367
H  -2.498406802682 -1.368487008924 -0.744548355965
B  -2.148954428599  0.928653378791  0.033537007236
H  -1.405172565016  1.564240956446  0.723817487056
H  -2.479015245552  1.356631268483 -1.034726298585
H  -3.070876763345  0.491963367379  0.683489943196
22
Step 17: E=-261.055590066
C   0.709774200201 -0.061204497812 -0.034571517072
C   1.273129813030  1.328965612758 -0.415115088413
H   0.669264449945  2.122301746834  0.033320799107
H   2.304754721618  1.419140391252 -0.056587652811
H   1.272176335170  1.461874825912 -1.503649918437
C   1.605474294415 -1.160709576882 -0.680499931801
H   1.229612193626 -2.157585648587 -0.426275448039
H   1.620224956848 -1.058445311589 -1.771769540470
H   2.632028147802 -1.063538742260 -0.309379549610
C   0.722120986547 -0.232286894229  1.497961572878
H   1.740996572044 -0.074003097694  1.868397559409
H   0.059758854489  0.496375155535  1.974222750118
H   0.411895867856 -1.241858439196  1.790317262836
C  -0.663023658420 -0.272126446414 -0.660659860898
C  -1.686460453521 -1.008792607186 -0.123395252352
H  -0.702326629704 -0.039317230528 -1.721644387651
H  -1.625733657645 -1.404657070787  0.882688331875
H  -2.496241642613 -1.374414037103 -0.743306542114
B  -2.137581253798  0.921491361273  0.029979846611
H  -1.406009406402  1.554077979776  0.735448321488
H  -2.465995124965  1.360085282191 -1.034436522169
H  -3.067839566521  0.484627244735  0.668954767515
22
Step 16: E=-261.055388573
C   0.707632231078 -0.057990324085 -0.034355677610
C   1.273748847890  1.331031802106 -0.414344236452
H   0.671424479614  2.125325946093  0.034592648082
H   2.305611766090  1.419079580870 -0.055941787136
H   1.272840367453  1.464496015883 -1.502811069847
C   1.599847335557 -1.159474423485 -0.681083086756
H   1.220785231716 -2.155349513655 -0.427559615427
H   1.614542994717 -1.056491158092 -1.772297700012
H   2.626898206523 -1.066140588848 -0.310311679694
C   0.721472020959 -0.229826714610  1.498067419929
H   1.741244619594 -0.073888923146  1.867055422814
H   0.061473881138  0.499918355194  1.975873594997
H   0.409766900248 -1.238948265979  1.790442104217
C  -0.666359640297 -0.266350273223 -0.659686039713
C  -1.687331412193 -1.008549419373 -0.121817391917
H  -0.703290576411 -0.040836056652 -1.722237516417
H  -1.624203618830 -1.403864872092  0.884315193538
H  -2.494254574852 -1.380092837809 -0.741906639246
B  -2.126102167957  0.914023569557  0.026111779005
H  -1.407107340446  1.544720223441  0.746150241307
H  -2.455109091421  1.362574515004 -1.033948652965
H  -3.063530460174  0.476633362900  0.655692689304
22
Step 15: E=-261.055156242
C   0.705567762473 -0.054822969198 -0.034300428616