22
Step 18: E=-261.053082597
C   0.752585954545 -0.149883136364 -0.028554000000
C   1.280944954545  1.147589863636 -0.690144000000
H   0.651320954545  2.000825863636 -0.424489000000
H   2.304963954545  1.343043863636 -0.352202000000
H   1.290641954545  1.046684863636 -1.782147000000
C   1.699497954545 -1.324229136364 -0.420730000000
H   1.362124954545 -2.258072136364  0.041081000000
H   1.723033954545 -1.458541136364 -1.508279000000
H   2.716630954545 -1.104194136364 -0.076100000000
C   0.744002954545  0.008355863636  1.506411000000
H   1.748356954545  0.279764863636  1.850150000000
H   0.045453954545  0.795513863636  1.807637000000
H   0.459944954545 -0.927226136364  2.000997000000
C  -0.617461045455 -0.502919136364 -0.591895000000
C  -1.637098045455 -1.079534136364  0.077917000000
H  -0.700270045455 -0.393530136364 -1.672551000000
H  -1.594942045455 -1.257808136364  1.146089000000
H  -2.518498045455 -1.438812136364 -0.441773000000
H  -3.143591045455  0.888777863636  0.733816000000
H  -2.726341045455  1.207910863636 -1.262003000000
B  -2.377635045455  1.239030863636 -0.118669000000
H  -1.463668045455  1.937250863636  0.205438000000
22
Step 17: E=-261.053428894
C   0.751143000000 -0.143048954545 -0.028966090909
C   1.294112000000  1.149856045455 -0.687163090909
H   0.671406000000  2.008824045455 -0.423771090909
H   2.318299000000  1.335631045455 -0.344408090909
H   1.307940000000  1.049640045455 -1.779202090909
C   1.691820000000 -1.324643954545 -0.414664090909
H   1.344423000000 -2.255741954545  0.045213909091
H   1.721495000000 -1.459569954545 -1.501983090909
H   2.708268000000 -1.112026954545 -0.063430090909
C   0.733188000000  0.016071045455  1.505945909091
H   1.736304000000  0.283770045455  1.856117909091
H   0.035475000000  0.806090045455  1.801478909091
H   0.442254000000 -0.917855954545  1.999584909091
C  -0.618092000000 -0.487265954545 -0.600540090909
C  -1.636299000000 -1.078860954545  0.059710909091
H  -0.700354000000 -0.361785954545 -1.679483090909
H  -1.592492000000 -1.275223954545  1.124537909091
H  -2.515155000000 -1.435366954545 -0.466041090909
H  -3.076815000000  0.893280045455  0.802977909091
H  -2.798923000000  1.157964045455 -1.226088090909
B  -2.371955000000  1.217025045455 -0.110697090909
H  -1.446042000000  1.933240045455  0.130868909091
22
Step 16: E=-261.053769288
C   0.749338954545 -0.137921954545 -0.029211818182
C   1.301314954545  1.151957045455 -0.685539818182
H   0.683104954545  2.014485045455 -0.423244818182
H   2.325727954545  1.331567045455 -0.340240818182
H   1.317206954545  1.052170045455 -1.777592818182
C   1.685457954545 -1.324318954545 -0.411583818182
H   1.331768954545 -2.253641954545  0.047069181818
H   1.718445954545 -1.459436954545 -1.498780818182
H   2.701632954545 -1.116680954545 -0.056633818182
C   0.726625954545  0.021618045455  1.505623181818
H   1.729296954545  0.286654045455  1.859065181818
H   0.029988954545  0.813641045455  1.798215181818
H   0.431518954545 -0.911217954545  1.998818181818
C  -0.619616045455 -0.476500954545 -0.605266818182
C  -1.637456045455 -1.075911954545  0.049980181818
H  -0.701206045455 -0.343453954545 -1.683305818182
H  -1.592496045455 -1.281915954545  1.112840181818
H  -2.514074045455 -1.432588954545 -0.479243818182
H  -3.035339045455  0.891386045455  0.837845181818
H  -2.832787045455  1.128268045455 -1.204198818182
B  -2.363544045455  1.197724045455 -0.106470818182
H  -1.434912045455  1.924120045455  0.091858181818
22
Step 15: E=-261.054101092
C   0.747474954545 -0.133377954545 -0.029425045455
C   1.306592954545  1.153931045455 -0.684470045455
H   0.692015954545  2.019327045455 -0.423127045455
H   2.331181954545  1.328620045455 -0.337231045455
H   1.324078954545  1.054309045455 -1.776519045455
C   1.679576954545 -1.323788954545 -0.409381045455
H   1.320814954545 -2.251653954545  0.048274954545
H   1.715043954545 -1.459018954545 -1.496486045455
H   2.695596954545 -1.120336954545 -0.051613045455
C   0.721342954545  0.026511045455  1.505349954545
H   1.723749954545  0.289359045455  1.861134954545
H   0.025690954545  0.820158045455  1.795739954545
H   0.422971954545 -0.905444954545  1.998225954545
C  -0.621377045455 -0.467267954545 -0.608753045455
C  -1.639271045455 -1.072184954545  0.042875954545
H  -0.702277045455 -0.329165954545 -1.686162045455
H  -1.593095045455 -1.285661954545  1.104122954545
H  -2.513637045455 -1.430046954545 -0.489110045455
H  -3.002233045455  0.887560045455  0.862334954545
H  -2.854528045455  1.105119045455 -1.186958045455
B  -2.354277045455  1.179379045455 -0.103265045455
H  -1.425438045455  1.913676045455  0.064440954545
22
Step 14: E=-261.054422458
C   0.745346045455 -0.129139000000 -0.029623000000
C   1.310260045455  1.155811000000 -0.684098000000
H   0.699154045455  2.023791000000 -0.423233000000
H   2.335264045455  1.326076000000 -0.335939000000
H   1.328316045455  1.056159000000 -1.776136000000
C   1.673957045455 -1.322929000000 -0.407842000000
H   1.311252045455 -2.249482000000  0.049344000000
H   1.710954045455 -1.458396000000 -1.494867000000
H   2.689988045455 -1.122813000000 -0.048256000000
C   0.717094045455  0.031061000000  1.505061000000
H   1.719491045455  0.292040000000  1.862220000000
H   0.022490045455  0.826102000000  1.793960000000
H   0.416226045455 -0.900154000000  1.997805000000
C  -0.623454954545 -0.459493000000 -0.611282000000
C  -1.641663954545 -1.068052000000  0.037977000000
H  -0.703519954545 -0.318820000000 -1.688348000000
H  -1.594346954545 -1.286679000000  1.098046000000
H  -2.513658954545 -1.428394000000 -0.496079000000
H  -2.977990954545  0.880905000000  0.877616000000
H  -2.864639954545  1.088682000000 -1.174914000000
B  -2.344010954545  1.161721000000 -0.100713000000
H  -1.416505954545  1.902003000000  0.049301000000
22
Step 13: E=-261.05473185
C   0.743619954545 -0.125262909091 -0.029789954545
C   1.313827954545  1.157636090909 -0.683424954545
H   0.705428954545  2.027697090909 -0.423229954545
H   2.338977954545  1.324303090909 -0.333981954545
H   1.332914954545  1.058052090909 -1.775454954545
C   1.668685954545 -1.322307909091 -0.406608954545
H   1.302032954545 -2.247717909091  0.049738045455
H   1.707354954545 -1.457709909091 -1.493583954545
H   2.684664954545 -1.125661909091 -0.045032954545
C   0.713369954545  0.035172090909  1.504869045455
H   1.715731954545  0.294290090909  1.863433045455
H   0.019793954545  0.831566090909  1.792420045455
H   0.410044954545 -0.895353909091  1.997393045455
C  -0.625310045455 -0.451744909091 -0.613469954545
C  -1.644092045455 -1.063416909091  0.033690045455
H  -0.704545045455 -0.308910909091 -1.690270954545
H  -1.595644045455 -1.287150909091  1.092555045455
H  -2.513811045455 -1.425947909091 -0.502424954545
H  -2.953901045455  0.875022090909  0.892155045455
H  -2.875536045455  1.072225090909 -1.163261954545
B  -2.334512045455  1.144216090909 -0.099049954545
H  -1.409098045455  1.891006090909  0.033332045455
22
Step 12: E=-261.055027707
C   0.741630909091 -0.121330045455 -0.029941909091
C   1.316839909091  1.159439954545 -0.683126909091
H   0.711770909091  2.031843954545 -0.422999909091
H   2.342486909091  1.322072954545 -0.333265909091
H   1.336002909091  1.059984954545 -1.775166909091
C   1.663314909091 -1.321487045455 -0.405518909091
H   1.293087909091 -2.245739045455  0.050282090909
H   1.703257909091 -1.456958045455 -1.492437909091
H   2.679325909091 -1.128024045455 -0.042365909091
C   0.709924909091  0.039369954545  1.504635090909
H   1.712400909091  0.296679954545  1.864159090909
H   0.017500909091  0.837096954545  1.791124090909
H   0.404405909091 -0.890465045455  1.997102090909
C  -0.627381090909 -0.444486045455 -0.615402909091
C  -1.646710090909 -1.058824045455  0.030113090909
H  -0.705730090909 -0.300363045455 -1.692024909091
H  -1.596913090909 -1.286864045455  1.087915090909
H  -2.513901090909 -1.424546045455 -0.507764909091
H  -2.933781090909  0.867808954545  0.903050090909
H  -2.881333090909  1.058624954545 -1.153802909091
B  -2.324526090909  1.126815954545 -0.097439909091
H  -1.401675090909  1.879347954545  0.022879090909
22
Step 11: E=-261.055308409
C   0.739674045455 -0.117516909091 -0.030081045455
C   1.319510045455  1.161263090909 -0.682869045455
H   0.717160045455  2.035652090909 -0.423126045455
H   2.345442045455  1.320394090909 -0.332299045455
H   1.339099045455  1.061743090909 -1.774891045455
C   1.658014045455 -1.320654909091 -0.404543045455
H   1.284473045455 -2.243800909091  0.050804954545
H   1.699067045455 -1.456238909091 -1.491411045455
H   2.674097045455 -1.130240909091 -0.040029045455
C   0.706689045455  0.043417090909  1.504449954545
H   1.709274045455  0.299097090909  1.864794954545
H   0.015294045455  0.842328090909  1.789977954545
H   0.399196045455 -0.885802909091  1.996829954545
C  -0.629467954545 -0.437439909091 -0.617093045455
C  -1.649433954545 -1.054151909091  0.026922954545
H  -0.706891954545 -0.292393909091 -1.693588045455
H  -1.598291954545 -1.286646909091  1.083599954545
H  -2.514048954545 -1.423099909091 -0.512772045455
H  -2.914325954545  0.860852090909  0.912856954545
H  -2.886038954545  1.046164090909 -1.144917045455
B  -2.314335954545  1.109527090909 -0.096173045455
H  -1.394153954545  1.867550090909  0.013554954545
22
Step 10: E=-261.05557222
C   0.737905000000 -0.113875090909 -0.030183000000
C   1.322249000000  1.163031909091 -0.682349000000
H   0.722127000000  2.039136909091 -0.423246000000
H   2.348258000000  1.319224909091 -0.330692000000
H   1.342731000000  1.063487909091 -1.774358000000
C   1.652889000000 -1.319885090909 -0.403728000000
H   1.275954000000 -2.241934090909  0.051034000000
H   1.695013000000 -1.455413090909 -1.490558000000
H   2.669013000000 -1.132571090909 -0.037792000000
C   0.703638000000  0.047132909091  1.504307000000
H   1.706395000000  0.300795909091  1.865568000000
H   0.013560000000  0.847444909091  1.788996000000
H   0.393844000000 -0.881406090909  1.996530000000
C  -0.631445000000 -0.430310090909 -0.618776000000
C  -1.652217000000 -1.049245090909  0.023883000000
H  -0.707970000000 -0.284396090909 -1.695156000000
H  -1.599434000000 -1.286022090909  1.079449000000
H  -2.514119000000 -1.421774090909 -0.517492000000
H  -2.894457000000  0.854963909091  0.922874000000
H  -2.891620000000  1.033095909091 -1.135855000000
B  -2.304720000000  1.092269909091 -0.095230000000
H  -1.387594000000  1.856246909091  0.002774000000
22
Step 9: E=-261.055817169
C   0.736080000000 -0.110194954545 -0.030261045455
C   1.324850000000  1.164797045455 -0.681913045455
H   0.727298000000  2.042692045455 -0.422891045455
H   2.351139000000  1.317621045455 -0.329644045455
H   1.345625000000  1.065402045455 -1.773929045455
C   1.647663000000 -1.319077954545 -0.402897045455
H   1.267236000000 -2.240086954545  0.051068954545
H   1.691109000000 -1.454464954545 -1.489703045455
H   2.663793000000 -1.135055954545 -0.035345045455
C   0.700570000000  0.051054045455  1.504189954545
H   1.703493000000  0.302751045455  1.866332954545
H   0.011804000000  0.852775045455  1.787984954545
H   0.388507000000 -0.876761954545  1.996333954545
C  -0.633452000000 -0.423216954545 -0.620405045455
C  -1.654951000000 -1.044453954545  0.020931954545
H  -0.708918000000 -0.276759954545 -1.696711045455
H  -1.600447000000 -1.285811954545  1.075277954545
H  -2.513911000000 -1.420887954545 -0.522272045455
H  -2.874737000000  0.849147045455  0.932387954545
H  -2.896725000000  1.020885045455 -1.126881045455
B  -2.294976000000  1.074892045455 -0.094421045455
H  -1.381050000000  1.844757045455 -0.007235045455
22
Step 8: E=-261.056041216
C   0.734223045455 -0.106444909091 -0.030334090909
C   1.327553045455  1.166629090909 -0.681312090909
H   0.732530045455  2.046420090909 -0.422881090909
H   2.353968045455  1.316297090909 -0.328068090909
H   1.349101045455  1.067249090909 -1.773314090909
C   1.642414045455 -1.318244909091 -0.402064090909
H   1.258634045455 -2.238110909091  0.051388909091
H   1.686795045455 -1.453607909091 -1.488827090909
H   2.658603045455 -1.137317909091 -0.033217090909
C   0.697533045455  0.054749090909  1.504084909091
H   1.700622045455  0.304553090909  1.867031909091
H   0.009965045455  0.857713090909  1.787145909091
H   0.383341045455 -0.872482909091  1.995952909091
C  -0.635475954545 -0.416051909091 -0.621974090909
C  -1.657785954545 -1.039677909091  0.017970909091
H  -0.710046954545 -0.268917909091 -1.698185090909
H  -1.601452954545 -1.285680909091  1.071066909091
H  -2.513570954545 -1.420376909091 -0.527078090909
H  -2.854597954545  0.844302090909  0.942058909091
H  -2.902127954545  1.008332090909 -1.117531090909
B  -2.285431954545  1.057453090909 -0.093622090909
H  -1.374791954545  1.833217090909 -0.018293090909
22
Step 7: E=-261.056242131
C   0.732538000000 -0.102960000000 -0.030316045455
C   1.329981000000  1.168429000000 -0.680623045455
H   0.737294000000  2.049797000000 -0.422128045455
H   2.356623000000  1.314990000000 -0.326776045455
H   1.351826000000  1.069385000000 -1.772649045455
C   1.637383000000 -1.317424000000 -0.401438045455
H   1.250465000000 -2.236300000000  0.051369954545
H   1.682630000000 -1.452612000000 -1.488190045455
H   2.653669000000 -1.139604000000 -0.031393045455
C   0.694740000000  0.058158000000  1.504030954545
H   1.698010000000  0.306086000000  1.867747954545
H   0.008417000000  0.862383000000  1.786415954545
H   0.378473000000 -0.868467000000  1.995716954545
C  -0.637341000000 -0.409203000000 -0.623410045455
C  -1.660666000000 -1.034476000000  0.015580954545
H  -0.710779000000 -0.262118000000 -1.699618045455
H  -1.602209000000 -1.284951000000  1.067415954545
H  -2.513102000000 -1.419990000000 -0.531176045455
H  -2.835636000000  0.839994000000  0.950501954545
H  -2.906881000000  0.996817000000 -1.109171045455
B  -2.276329000000  1.040242000000 -0.093433045455
H  -1.369106000000  1.821824000000 -0.028459045455
22
Step 6: E=-261.056417608
C   0.730815090909 -0.099346954545 -0.030333181818
C   1.332513090909  1.170297045455 -0.679766181818
H   0.742102090909  2.053292045455 -0.421545181818
H   2.359254090909  1.313877045455 -0.325015181818
H   1.355016090909  1.071518045455 -1.771801181818
C   1.632224090909 -1.316611954545 -0.400823181818
H   1.242023090909 -2.234414954545  0.051340818182
H   1.678365090909 -1.451657954545 -1.487559181818
H   2.648591090909 -1.141981954545 -0.029543181818
C   0.691911090909  0.061638045455  1.504028818182
H   1.695373090909  0.307462045455  1.868594818182
H   0.006950090909  0.867218045455  1.785799818182
H   0.373337090909 -0.864388954545  1.995330818182
C  -0.639283909091 -0.402089954545 -0.624791181818
C  -1.663604909091 -1.029552954545  0.012987818182
H  -0.711473909091 -0.255159954545 -1.701051181818
H  -1.603232909091 -1.284517954545  1.063544818182
H  -2.512348909091 -1.420102954545 -0.535764181818
H  -2.815059909091  0.836381045455  0.959654818182
H  -2.912559909091  0.984833045455 -1.099891181818
B  -2.267187909091  1.022780045455 -0.093209181818
H  -1.363722909091  1.810530045455 -0.040189181818
22
Step 5: E=-261.056565303
C   0.729131954545 -0.095791045455 -0.030290818182
C   1.335163954545  1.172141954545 -0.678760818182
H   0.746837954545  2.056675954545 -0.420952818182
H   2.361888954545  1.312890954545 -0.322850818182
H   1.358601954545  1.073587954545 -1.770790818182
C   1.627063954545 -1.315823045455 -0.400077818182
H   1.233476954545 -2.232556045455  0.051331181818
H   1.674219954545 -1.450682045455 -1.486793818182
H   2.643464954545 -1.144480045455 -0.027428818182
C   0.688936954545  0.065095954545  1.504027181818
H   1.692599954545  0.308635954545  1.869542181818
H   0.005463954545  0.872140954545  1.785124181818
H   0.367857954545 -0.860236045455  1.994990181818
C  -0.641146045455 -0.394831045455 -0.626372818182
C  -1.666537045455 -1.024616045455  0.010045181818
H  -0.712042045455 -0.247817045455 -1.702635818182
H  -1.603905045455 -1.284813045455  1.059098181818
H  -2.511283045455 -1.420533045455 -0.540847818182
H  -2.792613045455  0.834219954545  0.969843181818
H  -2.919994045455  0.972420954545 -1.089266818182
B  -2.258451045455  1.005217954545 -0.092912818182
H  -1.358738045455  1.799149954545 -0.054018818182
22
Step 4: E=-261.056682987
C   0.727425045455 -0.092057954545 -0.030200090909
C   1.338162045455  1.174123045455 -0.677343090909
H   0.752303045455  2.060373045455 -0.419657090909
H   2.364921045455  1.311598045455 -0.320275090909
H   1.362485045455  1.076137045455 -1.769403090909
C   1.621711045455 -1.314972954545 -0.399205090909
H   1.224266045455 -2.230634954545  0.050988909091
H   1.670376045455 -1.449359954545 -1.485919090909
H   2.638014045455 -1.147309954545 -0.024666090909
C   0.685621045455  0.068624045455  1.504118909091
H   1.689461045455  0.309519045455  1.870863909091
H   0.003842045455  0.877357045455  1.784404909091
H   0.361583045455 -0.855938954545  1.994546909091
C  -0.642942954545 -0.387255954545 -0.628213090909
C  -1.669447954545 -1.020075954545  0.006325909091
H  -0.712212954545 -0.239897954545 -1.704478090909
H  -1.604665954545 -1.285754954545  1.053778909091
H  -2.509472954545 -1.421952954545 -0.547264090909
H  -2.766280954545  0.835096045455  0.982640909091
H  -2.930770954545  0.958142045455 -1.075749090909
B  -2.250248954545  0.987152045455 -0.092058090909
H  -1.354126954545  1.787091045455 -0.073238090909
22
Step 3: E=-261.056768502
C   0.725594045455 -0.088485136364 -0.030026045455
C   1.340805045455  1.176047863636 -0.676050045455
H   0.757382045455  2.064023863636 -0.418416045455
H   2.367598045455  1.310115863636 -0.317876045455
H   1.365909045455  1.078513863636 -1.768119045455
C   1.616835045455 -1.314000136364 -0.398163045455
H   1.216223045455 -2.228677136364  0.051238954545
H   1.666706045455 -1.448175136364 -1.484850045455
H   2.633053045455 -1.149342136364 -0.022097045455
C   0.682053045455  0.071975863636  1.504196954545
H   1.686160045455  0.309907863636  1.872141954545
H   0.002248045455  0.882574863636  1.783718954545
H   0.354800045455 -0.851701136364  1.994108954545
C  -0.644429954545 -0.380350136364 -0.630253045455
C  -1.672665954545 -1.015057136364  0.002541954545
H  -0.712410954545 -0.232390136364 -1.706425045455
H  -1.605382954545 -1.287392136364  1.048055954545
H  -2.507431954545 -1.423707136364 -0.553912045455
H  -2.739405954545  0.837401863636  0.995365954545
H  -2.941876954545  0.945481863636 -1.061751045455
B  -2.242674954545  0.969462863636 -0.091123045455
H  -1.349086954545  1.773770863636 -0.092308045455
22
Step 2: E=-261.056820053
C   0.723848000000 -0.084694045455 -0.030013954545
C   1.343898000000  1.177976954545 -0.674596954545
H   0.762427000000  2.067514954545 -0.417798954545
H   2.370342000000  1.309265954545 -0.314429954545
H   1.370838000000  1.080725954545 -1.766658954545
C   1.611399000000 -1.313147045455 -0.396844954545
H   1.206963000000 -2.226510045455  0.051796045455
H   1.662721000000 -1.447385045455 -1.483460954545
H   2.627496000000 -1.151955045455 -0.019011954545
C   0.678037000000  0.075827954545  1.504159045455
H   1.682402000000  0.309966954545  1.873801045455
H   0.000756000000  0.888920954545  1.782433045455
H   0.346430000000 -0.846589045455  1.993493045455
C  -0.646048000000 -0.372456045455 -0.632726954545
C  -1.675632000000 -1.010897045455 -0.002552954545
H  -0.711766000000 -0.224248045455 -1.708950954545
H  -1.606076000000 -1.289767045455  1.041007045455
H  -2.504341000000 -1.426553045455 -0.562634954545
H  -2.707788000000  0.840788954545  1.010735045455
H  -2.955673000000  0.931658954545 -1.043848954545
B  -2.235062000000  0.950958954545 -0.088826954545
H  -1.345171000000  1.760594954545 -0.115065954545
22
Step 1: E=-261.056835058
C   0.721930000000 -0.080912000000 -0.030054045455
C   1.346891000000  1.179856000000 -0.673297045455
H   0.767197000000  2.070996000000 -0.417638045455
H   2.372862000000  1.308523000000 -0.310893045455
H   1.375969000000  1.082618000000 -1.765307045455
C   1.605985000000 -1.312304000000 -0.395134045455
H   1.197675000000 -2.224285000000  0.052803954545
H   1.659038000000 -1.446822000000 -1.481640045455
H   2.621850000000 -1.154478000000 -0.015305045455
C   0.673660000000  0.080041000000  1.504012954545
H   1.678332000000  0.310060000000  1.875390954545
H  -0.000806000000  0.895916000000  1.780773954545
H   0.337293000000 -0.840846000000  1.992935954545
C  -0.647688000000 -0.364550000000 -0.635542045455
C  -1.678799000000 -1.007054000000 -0.008406045455
H  -0.711234000000 -0.215373000000 -1.711697045455
H  -1.606731000000 -1.293781000000  1.032792954545
H  -2.501034000000 -1.429720000000 -0.572567045455
H  -2.673830000000  0.845450000000  1.026950954545
H  -2.970113000000  0.918173000000 -1.023692045455
B  -2.227401000000  0.932249000000 -0.085564045455
H  -1.341046000000  1.746243000000 -0.138925045455
22
Step 122: E=-261.05683107
C   0.721629915363 -0.079323681561 -0.031183446676
C   1.350418070532  1.178877546158 -0.675655827341
H   0.771050455138  2.071503290595 -0.424224279702
H   2.375319532305  1.307275151501 -0.310161632277
H   1.383069067042  1.078620607594 -1.767320862998
C   1.603928991048 -1.313294817397 -0.391589268627
H   1.192771142026 -2.223348315080  0.057637971907
H   1.658927942954 -1.450532786143 -1.477669325652
H   2.619342503071 -1.156670201008 -0.010035063289
C   0.670337356640  0.085285239324  1.502443610021
H   1.675162954725  0.311820870561  1.875621830510
H  -0.001415338780  0.904545104233  1.775568224288
H   0.328835529568 -0.832959354710  1.992823794224
C  -0.647399942967 -0.360872807128 -0.639207382027
C  -1.677052308490 -1.010551500963 -0.016794623322
H  -0.711164592668 -0.204371619378 -1.714336316165
H  -1.604241870567 -1.305009697250  1.022253290365
H  -2.498135318838 -1.431160357315 -0.584122008950
H  -2.659612008562  0.840994700925  1.041337337836
H  -2.981201542216  0.916119324072 -1.006957398520
B  -2.227782783952  0.928747235394 -0.077045998084
H  -1.342787753371  1.744306067575 -0.141382625523
22
Step 121: E=-261.056824743
C   0.720992098512 -0.077651180608 -0.032295855097
C   1.353062249052  1.178013042910 -0.678353238623
H   0.773920632182  2.071980787439 -0.431006691035
H   2.376993712995  1.306451649285 -0.310206042782
H   1.388878241822  1.074702100110 -1.769628277097
C   1.601357174272 -1.314164314293 -0.388379675750
H   1.187782329376 -2.222203808945  0.062670566904
H   1.657506122559 -1.454397284607 -1.474015733980
H   2.616568685699 -1.158562697728 -0.005871470349
C   0.667579544252  0.090578743130  1.500904203637
H   1.672799138215  0.313261373726  1.875322423442
H  -0.000952148942  0.913339604058  1.770994815672
H   0.320975721929 -0.824945844273  1.992714392170
C  -0.647712759069 -0.357559306435 -0.642110790551
C  -1.676264134759 -1.012838001400 -0.023133033261
H  -0.711626401697 -0.196184118560 -1.716478724102
H  -1.602247706707 -1.313586199104  1.014000878861
H  -2.495610146834 -1.433182859807 -0.593065420248
H  -2.638887813465  0.841770171959  1.056698912295
H  -2.994573351680  0.910828839917 -0.987222797456
B  -2.226852602210  0.923957733404 -0.069173408376
H  -1.343688585503  1.740391569823 -0.152365034271
22
Step 120: E=-261.056814338
C   0.720231599729 -0.076143952233 -0.033277945256
C   1.355464746320  1.177254267203 -0.680517331521
H   0.776775128500  2.072507011452 -0.436498784170
H   2.378611211656  1.305377874402 -0.310099135084
H   1.393929736108  1.071512320860 -1.771487372340
C   1.598802675462 -1.314977083905 -0.385534764700
H   1.182924834004 -2.221267575636  0.066917479958
H   1.656199620752 -1.457698055911 -1.470790824164
H   2.613778186351 -1.160420467129 -0.001963559211
C   0.664767049258  0.095159974263  1.499560115410
H   1.670290639903  0.314649604345  1.875129334666
H  -0.001168642204  0.920823832001  1.766993725654
H   0.313864230827 -0.818133607550  1.992540307585
C  -0.648132257206 -0.354484078339 -0.644890880830
C  -1.675916641885 -1.014677774024 -0.029009124623
H  -0.711870894226 -0.189230890752 -1.718675814149
H  -1.600924222462 -1.320943972866  1.006482786190
H  -2.493261656418 -1.435375634846 -0.601436513241
H  -2.613975294443  0.846370364630  1.072901801962
H  -3.010187843125  0.904205085817 -0.965474876550
B  -2.225585102303  0.919391958278 -0.061694500734
H  -1.344617104598  1.736100799941 -0.169174124851
22
Step 119: E=-261.056800014
C   0.719479373958 -0.074506405700 -0.034118262680
C   1.358268516430  1.176441809123 -0.682448652017
H   0.779995897387  2.073042553182 -0.442206104869
H   2.380444983559  1.304274417347 -0.309296454834
H   1.399907502995  1.068043858533 -1.773041695621
C   1.595787449292 -1.315944534737 -0.382542080571
H   1.177354611724 -2.220255023231  0.071494166315
H   1.654141391366 -1.461333508052 -1.467392141053
H   2.610639959064 -1.162751917882  0.001897124885
C   0.662034827282  0.099894523460  1.498326799861
H   1.668191411960  0.314062152571  1.875266018102
H   0.000453139288  0.929791375681  1.763067407039
H   0.304820013713 -0.810355050079  1.992338997361
C  -0.648516481971 -0.350877532100 -0.647745198360
C  -1.675585876700 -1.016394228375 -0.035611443234
H  -0.711901112571 -0.181205345050 -1.720832131536
H  -1.599789467029 -1.328855428098  0.997956466344
H  -2.490777893578 -1.437063091766 -0.611028833565
H  -2.591464506959  0.848623878806  1.087658466046
H  -3.023618061462  0.898707647134 -0.945123184550
B  -2.224194329978  0.914624501175 -0.054268820483
H  -1.345671347771  1.732035348058 -0.182350442583
22
Step 118: E=-261.05678159
C   0.718603739375 -0.072784677205 -0.034749216362
C   1.360871878135  1.175867533083 -0.683914608693
H   0.783171258205  2.073772276698 -0.446955061876
H   2.382194346558  1.303185142202 -0.308284410879
H   1.405342861975  1.065211578704 -1.774168654773
C   1.592504813945 -1.316775803365 -0.379884032578
H   1.171583980000 -2.219209288695  0.075573216471
H   1.651548753167 -1.464528777629 -1.464379093838
H   2.607334322235 -1.165099186543  0.005219172751
C   0.659557195983  0.104300254113  1.497348847714
H   1.666531773889  0.312645882025  1.875481064744
H   0.002742512067  0.938626100227  1.759835451516
H   0.295794387096 -0.802919310819  1.992192050727
C  -0.649029115582 -0.347249803900 -0.650328152148
C  -1.675584519789 -1.017755500512 -0.041781397911
H  -0.711690741167 -0.174123617861 -1.722872085570
H  -1.599165118992 -1.335845700892  0.990022510630
H  -2.488191540003 -1.439103367040 -0.620251790368
H  -2.566650126276  0.852902571793  1.101918492124
H  -3.037714689628  0.892043391057 -0.923756128494
B  -2.222444967648  0.909482225464 -0.047351776916
H  -1.347311003547  1.727358079095 -0.198914396269
22
Step 117: E=-261.05675835
C   0.717597423471 -0.070831312196 -0.035142851736
C   1.363425558790  1.175583893427 -0.684902247120
H   0.786614938465  2.074842636124 -0.450689700883
H   2.384042027755  1.301987503270 -0.307071048831
H   1.410346540418  1.063082935769 -1.774860295330
C   1.588635496611 -1.317503434814 -0.377610665926
H   1.165101666247 -2.218034916805  0.079172585389
H   1.647874433286 -1.467353409365 -1.461810727543
H   2.603632002569 -1.167773818243  0.007807539083
C   0.657446882956  0.108607620616  1.496647213446
H   1.665502452221  0.309811246994  1.875824428929
H   0.006562204351  0.948060459043  1.757264813012
H   0.286150079185 -0.795161934386  1.992167422798
C  -0.649704430378 -0.343350439153 -0.652569787599
C  -1.675817843936 -1.018794136014 -0.047534034188
H  -0.711311052183 -0.167613254551 -1.724715721612
H  -1.598840451439 -1.342128336973  0.982583873405
H  -2.485340868588 -1.441571006327 -0.629193429242
H  -2.541119427259  0.857899900290  1.115173835882
H  -3.051384000797  0.884593770793 -0.902568754672
B  -2.220274288621  0.903622585621 -0.041104415573
H  -1.349139343122  1.722023446880 -0.216868031687
22
Step 116: E=-261.056729505
C   0.716433062710 -0.068632537919 -0.035194941506
C   1.365796195122  1.175723663035 -0.685174339906
H   0.790267575139  2.076343404208 -0.452796794561
H   2.385953663516  1.300677273325 -0.305646141390
H   1.414487175382  1.062070703011 -1.774932389638
C   1.584162133640 -1.318035656318 -0.375890753319
H   1.157938306495 -2.216759134839  0.081921500315
H   1.643130068390 -1.469455630528 -1.459892814870
H   2.599510636360 -1.170742040213  0.009518451175
C   0.655807524384  0.112596395546  1.496362124227
H   1.665081084003  0.306087020237  1.876274337999
H   0.011397851693  0.957293225508  1.755673719132
H   0.276819725680 -0.787643149301  1.992364340050
C  -0.650569790031 -0.339298665110 -0.654314877429
C  -1.676436212017 -1.019262362007 -0.052329124649
H  -0.710568410560 -0.162661482652 -1.726357812638
H  -1.598944826308 -1.346870563513  0.976386782124
H  -2.482135242846 -1.444800237089 -0.637141523017
H  -2.513924772148  0.865150635843  1.126621723983
H  -3.064824359060  0.875891559314 -0.881353835699
B  -2.217630657128  0.896868354349 -0.035975509239
H  -1.351750732414  1.715459225111 -0.238122121144
22
Step 115: E=-261.056691682
C   0.715153793510 -0.066154672614 -0.034893031157
C   1.368120923437  1.176262523549 -0.684763432617
H   0.794321304591  2.078303262518 -0.453324888514
H   2.388089390040  1.299173133978 -0.304083234146
H   1.417849903136  1.062124562137 -1.774418483224
C   1.578996861291 -1.318426785937 -0.374765840147
H   1.149942036994 -2.215431260771  0.083759415909
H   1.637241794776 -1.470856759197 -1.458673901219
H   2.594912359725 -1.174157170552  0.010299363605
C   0.654699256699  0.116310260638  1.496507034558
H   1.665363806266  0.302006883449  1.876780246473
H   0.016832590263  0.966178081994  1.755059624742
H   0.268256462686 -0.780599274352  1.992853256645
C  -0.651680057787 -0.334885799894 -0.655421967030
C  -1.677396487523 -1.019161496746 -0.055981214783
H  -0.709739679125 -0.158783619997 -1.727588903836
H  -1.599276107267 -1.350194698977  0.971593691160
H  -2.478590526278 -1.448865377516 -0.643803617143
H  -2.486418024853  0.874284462039  1.136535612017
H  -3.077782629048  0.866160438257 -0.861729917209
B  -2.214702937381  0.888980213748 -0.032291603239
H  -1.354194034150  1.707733094246 -0.261648210846
22
Step 114: E=-261.056642784