     22
Step 1: E=-261.05426432
  C       0.6922850      0.0266510      0.0014240
  C       1.3844300      1.2506450     -0.6409090
  H       0.8402890      2.1706180     -0.4007540
  H       2.4078800      1.3428490     -0.2612370
  H       1.4287840      1.1436590     -1.7314760
  C       1.5021750     -1.2549770     -0.3495810
  H       1.0324040     -2.1390460      0.0933670
  H       1.5618180     -1.3944510     -1.4352570
  H       2.5204750     -1.1604160      0.0440580
  C       0.6421860      0.2017990      1.5333120
  H       1.6624950      0.3266560      1.9127730
  H       0.0559050      1.0845470      1.8031700
  H       0.2035280     -0.6744040      2.0216050
  C      -0.6884260     -0.1822300     -0.6210560
  C      -1.7505520     -0.9056140     -0.0186450
  H      -0.6932600     -0.1152260     -1.7069450
  H      -1.6147290     -1.2947730      0.9832240
  H      -2.4145810     -1.4776610     -0.6557280
  H      -2.2601710      1.1169170      1.1467820
  H      -3.0955290      0.9354130     -0.7884610
  B      -2.2140380      0.7753740      0.0032830
  H      -1.2577010      1.4407980     -0.4688010
     22
Step 2: E=-261.054345362
  C       0.7199230      0.0320730      0.0068560
  C       1.4123420      1.2560220     -0.6351100
  H       0.8684370      2.1762310     -0.3945850
  H       2.4358450      1.3485490     -0.2557300
  H       1.4563520      1.1492760     -1.7257220
  C       1.5281810     -1.2498440     -0.3440840
  H       1.0573880     -2.1336770      0.0982660
  H       1.5882210     -1.3889270     -1.4298000
  H       2.5464070     -1.1566430      0.0500520
  C       0.6690640      0.2071780      1.5387710
  H       1.6892540      0.3315910      1.9187160
  H       0.0831990      1.0901800      1.8088860
  H       0.2295920     -0.6688590      2.0264840
  C      -0.6622120     -0.1698960     -0.6159290
  C      -1.7284940     -0.8970380     -0.0115330
  H      -0.6624790     -0.1150480     -1.7027370
  H      -1.5850500     -1.2921590      0.9871720
  H      -2.3810480     -1.4791070     -0.6518800
  H      -2.2219310      1.1365800      1.1467560
  H      -3.0609540      0.9518820     -0.7880190
  B      -2.1895530      0.7709290      0.0103020
  H      -1.2099490      1.4101450     -0.4737370
     22
Step 3: E=-261.054623079
  C       0.7210370      0.0320810      0.0066890
  C       1.4135360      1.2561190     -0.6348990
  H       0.8698260      2.1765190     -0.3939150
  H       2.4371150      1.3490150     -0.2558790
  H       1.4571460      1.1496510     -1.7255600
  C       1.5277580     -1.2499580     -0.3441410
  H       1.0559630     -2.1336020      0.0975620
  H       1.5881530     -1.3886290     -1.4299060
  H       2.5459200     -1.1581530      0.0504660
  C       0.6693040      0.2072580      1.5386360
  H       1.6893510      0.3313920      1.9190760
  H       0.0837110      1.0904320      1.8089640
  H       0.2291630     -0.6686650      2.0258120
  C      -0.6624480     -0.1626420     -0.6165730
  C      -1.7329390     -0.8939230     -0.0100240
  H      -0.6579860     -0.1207910     -1.7042280
  H      -1.5817390     -1.2949940      0.9854020
  H      -2.3741520     -1.4855410     -0.6535350
  H      -2.2104560      1.1506860      1.1409260
  H      -3.0527110      0.9633040     -0.7930640
  B      -2.1920700      0.7619420      0.0119280
  H      -1.1879370      1.3732090     -0.4843690
     22
Step 4: E=-261.055144225
  C       0.7222180      0.0318970      0.0065160
  C       1.4145970      1.2561880     -0.6347080
  H       0.8709140      2.1767190     -0.3933740
  H       2.4382180      1.3496430     -0.2560180
  H       1.4578680      1.1499410     -1.7254170
  C       1.5274950     -1.2500580     -0.3441410
  H       1.0548270     -2.1335440      0.0970040
  H       1.5880980     -1.3883510     -1.4299600
  H       2.5456520     -1.1595980      0.0507820
  C       0.6695090      0.2073240      1.5384980
  H       1.6894110      0.3312700      1.9194180
  H       0.0841740      1.0906950      1.8089820
  H       0.2287510     -0.6684490      2.0252390
  C      -0.6624700     -0.1552310     -0.6174570
  C      -1.7372890     -0.8911090     -0.0084660
  H      -0.6531780     -0.1274660     -1.7058040
  H      -1.5781280     -1.2979980      0.9835630
  H      -2.3673820     -1.4916640     -0.6549300
  H      -2.1994330      1.1640270      1.1347050
  H      -3.0441860      0.9743830     -0.7978800
  B      -2.1950630      0.7535980      0.0137400
  H      -1.1650990      1.3352250     -0.4951190
     22
Step 5: E=-261.055945633
  C       0.7234450      0.0316000      0.0063430
  C       1.4155980      1.2562410     -0.6345290
  H       0.8718780      2.1768760     -0.3928700
  H       2.4392550      1.3503080     -0.2561610
  H       1.4585480      1.1501910     -1.7252820
  C       1.5273250     -1.2501530     -0.3441070
  H       1.0538160     -2.1335040      0.0964950
  H       1.5880590     -1.3880790     -1.4299850
  H       2.5455060     -1.1610680      0.0510690
  C       0.6697010      0.2073830      1.5383590
  H       1.6894530      0.3311710      1.9197690
  H       0.0846130      1.0909520      1.8089960
  H       0.2283630     -0.6682420      2.0247070
  C      -0.6623570     -0.1477250     -0.6184800
  C      -1.7416110     -0.8884140     -0.0068780
  H      -0.6481850     -0.1347440     -1.7073550
  H      -1.5744600     -1.3010260      0.9816840
  H      -2.3607360     -1.4975360     -0.6562150
  H      -2.1885980      1.1770410      1.1282930
  H      -3.0355690      0.9852280     -0.8025200
  B      -2.1983310      0.7455320      0.0156580
  H      -1.1421350      1.2970960     -0.5060770
     22
Step 6: E=-261.057048899
  C       0.7247220      0.0311990      0.0061720
  C       1.4165620      1.2562810     -0.6343520
  H       0.8727530      2.1769940     -0.3923850
  H       2.4402550      1.3510090     -0.2563150
  H       1.4591970      1.1504180     -1.7251500
  C       1.5272330     -1.2502500     -0.3440430
  H       1.0528900     -2.1334800      0.0960180
  H       1.5880330     -1.3878050     -1.4299870
  H       2.5454640     -1.1625860      0.0513370
  C       0.6698860      0.2074340      1.5382180
  H       1.6894770      0.3310940      1.9201390
  H       0.0850350      1.0912060      1.8089900
  H       0.2279940     -0.6680410      2.0242120
  C      -0.6621120     -0.1401440     -0.6196440
  C      -1.7459070     -0.8858110     -0.0052670
  H      -0.6429880     -0.1426910     -1.7088720
  H      -1.5707300     -1.3040560      0.9797660
  H      -2.3541950     -1.5031570     -0.6573850
  H      -2.1779130      1.1896970      1.1216410
  H      -3.0268320      0.9958760     -0.8070050
  B      -2.2019000      0.7377180      0.0176900
  H      -1.1189790      1.2590330     -0.5172230
     22
Step 7: E=-261.058447453
  C       0.7260760      0.0306730      0.0060020
  C       1.4175170      1.2563060     -0.6341730
  H       0.8735590      2.1770630     -0.3919110
  H       2.4412480      1.3517460     -0.2564810
  H       1.4598290      1.1506240     -1.7250180
  C       1.5272210     -1.2503530     -0.3439460
  H       1.0520340     -2.1334750      0.0955650
  H       1.5880170     -1.3875260     -1.4299610
  H       2.5455350     -1.1641970      0.0515910
  C       0.6700690      0.2074780      1.5380730
  H       1.6894870      0.3310350      1.9205460
  H       0.0854430      1.0914600      1.8089400
  H       0.2276410     -0.6678430      2.0237550
  C      -0.6616700     -0.1324620     -0.6210140
  C      -1.7502300     -0.8832530     -0.0036090
  H      -0.6375280     -0.1515400     -1.7102420
  H      -1.5669210     -1.3070540      0.9777770
  H      -2.3477270     -1.5084830     -0.6584430
  H      -2.1672210      1.2020860      1.1145690
  H      -3.0178410      1.0063710     -0.8113030
  B      -2.2058950      0.7300400      0.0198950
  H      -1.0958260      1.2219030     -0.5286240
     22
Step 8: E=-261.06009361
  C       0.7275090      0.0300700      0.0058310
  C       1.4184950      1.2563180     -0.6339850
  H       0.8743340      2.1770760     -0.3914190
  H       2.4422730      1.3525320     -0.2566640
  H       1.4604710      1.1508280     -1.7248770
  C       1.5272720     -1.2504750     -0.3438260
  H       1.0512070     -2.1334870      0.0951090
  H       1.5880250     -1.3872460     -1.4299180
  H       2.5456860     -1.1659030      0.0518440
  C       0.6702580      0.2075140      1.5379220
  H       1.6894850      0.3309820      1.9209930
  H       0.0858470      1.0917120      1.8088260
  H       0.2272870     -0.6676400      2.0233180
  C      -0.6610860     -0.1247530     -0.6225330
  C      -1.7545770     -0.8806470     -0.0019200
  H      -0.6318240     -0.1609960     -1.7117110
  H      -1.5630110     -1.3100430      0.9757690
  H      -2.3412820     -1.5137130     -0.6594850
  H      -2.1564490      1.2145070      1.1074460
  H      -3.0088440      1.0168850     -0.8156450
  B      -2.2102140      0.7223780      0.0222300
  H      -1.0730550      1.1856210     -0.5401970
     22
Step 9: E=-261.061901691
  C       0.7290830      0.0293450      0.0056590
  C       1.4195470      1.2563180     -0.6337760
  H       0.8751100      2.1770160     -0.3908890
  H       2.4433890      1.3533820     -0.2568700
  H       1.4611550      1.1510420     -1.7247220
  C       1.5274060     -1.2506270     -0.3436720
  H       1.0503810     -2.1335240      0.0946340
  H       1.5880590     -1.3869560     -1.4298490
  H       2.5459510     -1.1678140      0.0521080
  C       0.6704670      0.2075430      1.5377590
  H       1.6894720      0.3309260      1.9215240
  H       0.0862660      1.0919720      1.8086280
  H       0.2269290     -0.6674270      2.0229010
  C      -0.6601910     -0.1169860     -0.6243560
  C      -1.7590600     -0.8779380     -0.0001470
  H      -0.6256900     -0.1716440     -1.7130800
  H      -1.5589190     -1.3129790      0.9736390
  H      -2.3347390     -1.5187110     -0.6604490
  H      -2.1453750      1.2269570      1.0996970
  H      -2.9994460      1.0274380     -0.8198710
  B      -2.2151370      0.7145800      0.0248330
  H      -1.0511490      1.1519260     -0.5522040
     22
Step 10: E=-261.063760062
  C       0.7308280      0.0285150      0.0054870
  C       1.4207350      1.2563040     -0.6335350
  H       0.8759240      2.1768550     -0.3902920
  H       2.4446630      1.3543130     -0.2571080
  H       1.4619160      1.1512840     -1.7245410
  C       1.5276330     -1.2508310     -0.3434870
  H       1.0495310     -2.1335960      0.0941130
  H       1.5881470     -1.3866650     -1.4297560
  H       2.5463320     -1.1699820      0.0524000
  C       0.6707110      0.2075630      1.5375790
  H       1.6894520      0.3308520      1.9221640
  H       0.0867170      1.0922420      1.8083180
  H       0.2265590     -0.6671980      2.0224950
  C      -0.6589150     -0.1092540     -0.6265200
  C      -1.7637250     -0.8750160      0.0017270
  H      -0.6190750     -0.1835340     -1.7143660
  H      -1.5545850     -1.3158200      0.9713840
  H      -2.3280390     -1.5235070     -0.6613910
  H      -2.1339120      1.2396850      1.0913330
  H      -2.9897630      1.0381110     -0.8240260
  B      -2.2207970      0.7064940      0.0277490
  H      -1.0306380      1.1221640     -0.5649290
     22
Step 11: E=-261.065562063
  C       0.7327830      0.0276000      0.0053190
  C       1.4221390      1.2562740     -0.6332440
  H       0.8768250      2.1765530     -0.3895840
  H       2.4461840      1.3553360     -0.2573860
  H       1.4628040      1.1515740     -1.7243210
  C       1.5279790     -1.2511200     -0.3432660
  H       1.0486360     -2.1337210      0.0935200
  H       1.5883340     -1.3863880     -1.4296360
  H       2.5468430     -1.1724860      0.0527480
  C       0.6710100      0.2075710      1.5373760
  H       1.6894310      0.3307420      1.9229520
  H       0.0872190      1.0925270      1.8078410
  H       0.2261650     -0.6669400      2.0220920
  C      -0.6571470     -0.1017180     -0.6290920
  C      -1.7685850     -0.8717830      0.0037130
  H      -0.6119220     -0.1967840     -1.7155560
  H      -1.5499600     -1.3184410      0.9689920
  H      -2.3211640     -1.5280000     -0.6623100
  H      -2.1221170      1.2526990      1.0822700
  H      -2.9800110      1.0487810     -0.8279950
  B      -2.2274060      0.6980620      0.0310450
  H      -1.0122260      1.0980110     -0.5787370
     22
Step 12: E=-261.067239643
  C       0.7349650      0.0266420      0.0051670
  C       1.4238750      1.2562060     -0.6328920
  H       0.8778980      2.1760550     -0.3887410
  H       2.4480670      1.3564020     -0.2577040
  H       1.4638870      1.1519030     -1.7240540
  C       1.5284840     -1.2515490     -0.3429940
  H       1.0477150     -2.1339400      0.0928620
  H       1.5886990     -1.3861870     -1.4294700
  H       2.5475010     -1.1753580      0.0531980
  C       0.6713920      0.2075710      1.5371430
  H       1.6894190      0.3305770      1.9239220
  H       0.0877750      1.0928310      1.8071100
  H       0.2257520     -0.6666370      2.0217040
  C      -0.6547670     -0.0945360     -0.6322040
  C      -1.7735580     -0.8682420      0.0057920
  H      -0.6044220     -0.2113220     -1.7162580
  H      -1.5451310     -1.3204550      0.9664710
  H      -2.3143760     -1.5316700     -0.6631130
  H      -2.1106520      1.2651230      1.0723070
  H      -2.9707660      1.0586110     -0.8311960
  B      -2.2353200      0.6893900      0.0348500
  H      -0.9962790      1.0819480     -0.5942220
     22
Step 13: E=-261.068752488
  C       0.7373070      0.0257490      0.0050160
  C       1.4259570      1.2561140     -0.6324600
  H       0.8791920      2.1753980     -0.3877060
  H       2.4503360      1.3574750     -0.2580340
  H       1.4651980      1.1523140     -1.7237200
  C       1.5291430     -1.2521290     -0.3426960
  H       1.0467600     -2.1342620      0.0921080
  H       1.5893100     -1.3860740     -1.4292780
  H       2.5482760     -1.1785580      0.0537830
  C       0.6718510      0.2075530      1.5368870
  H       1.6894240      0.3303530      1.9250440
  H       0.0883810      1.0931570      1.8061340
  H       0.2253030     -0.6662870      2.0213030
  C      -0.6520090     -0.0878260     -0.6356530
  C      -1.7783990     -0.8643700      0.0078550
  H      -0.5966650     -0.2264540     -1.7172790
  H      -1.5401840     -1.3219170      0.9640420
  H      -2.3078740     -1.5348060     -0.6638410
  H      -2.0999790      1.2772470      1.0627680
  H      -2.9633510      1.0674180     -0.8338270
  B      -2.2441830      0.6808100      0.0389400
  H      -0.9833110      1.0694160     -0.6107490
     22
Step 14: E=-261.070106991
  C       0.7398130      0.0249740      0.0048620
  C       1.4285140      1.2559870     -0.6319280
  H       0.8808910      2.1745800     -0.3864360
  H       2.4531280      1.3584510     -0.2583460
  H       1.4668660      1.1528220     -1.7233010
  C       1.5299900     -1.2529080     -0.3423620
  H       1.0457590     -2.1347230      0.0912390
  H       1.5902850     -1.3861020     -1.4290440
  H       2.5491710     -1.1821450      0.0545900
  C       0.6724140      0.2075220      1.5366010
  H       1.6894590      0.3300460      1.9263430
  H       0.0890600      1.0935140      1.8048620
  H       0.2248150     -0.6658850      2.0208720
  C      -0.6488300     -0.0817810     -0.6395670
  C      -1.7829620     -0.8602770      0.0098660
  H      -0.5887300     -0.2423640     -1.7180990
  H      -1.5351500     -1.3224890      0.9616840
  H      -2.3018590     -1.5370030     -0.6643140
  H      -2.0908090      1.2881230      1.0533630
  H      -2.9583930      1.0742870     -0.8352260
  B      -2.2542930      0.6726120      0.0434150
  H      -0.9732170      1.0623420     -0.6290670
     22
Step 15: E=-261.071312042
  C       0.7424240      0.0243660      0.0046700
  C       1.4315770      1.2558140     -0.6313050
  H       0.8831420      2.1736970     -0.3849860
  H       2.4564330      1.3591480     -0.2585600
  H       1.4689700      1.1533940     -1.7228020
  C       1.5310200     -1.2538870     -0.3419820
  H       1.0447550     -2.1353190      0.0903130
  H       1.5917010     -1.3863260     -1.4287470
  H       2.5501370     -1.1859510      0.0556880
  C       0.6730700      0.2074950      1.5362760
  H       1.6895430      0.3296840      1.9277210
  H       0.0898010      1.0939120      1.8033740
  H       0.2243110     -0.6654300      2.0203900
  C      -0.6454960     -0.0762150     -0.6438580
  C      -1.7870350     -0.8561230      0.0117390
  H      -0.5809450     -0.2583920     -1.7188360
  H      -1.5302130     -1.3221540      0.9595470
  H      -2.2966840     -1.5382990     -0.6644370
  H      -2.0840050      1.2971810      1.0449350
  H      -2.9568730      1.0786520     -0.8353000
  B      -2.2654880      0.6651070      0.0481670
  H      -0.9646620      1.0570240     -0.6485120
     22
Step 16: E=-261.072390693
  C       0.7450760      0.0239460      0.0044020
  C       1.4351420      1.2556070     -0.6305790
  H       0.8860960      2.1728480     -0.3833360
  H       2.4602580      1.3594400     -0.2586000
  H       1.4716030      1.1540690     -1.7222090
  C       1.5322050     -1.2550330     -0.3415630
  H       1.0437240     -2.1360250      0.0893080
  H       1.5936130     -1.3867290     -1.4283870
  H       2.5511280     -1.1899300      0.0571410
  C       0.6737980      0.2074760      1.5359060
  H       1.6896760      0.3292630      1.9291180
  H       0.0906120      1.0943480      1.8017480
  H       0.2238000     -0.6649420      2.0198230
  C      -0.6421460     -0.0712640     -0.6484510
  C      -1.7904860     -0.8519840      0.0134300
  H      -0.5733030     -0.2745900     -1.7195240
  H      -1.5252850     -1.3210300      0.9576470
  H      -2.2923100     -1.5389090     -0.6641860
  H      -2.0797440      1.3046600      1.0378150
  H      -2.9590920      1.0806290     -0.8341290
  B      -2.2776220      0.6584360      0.0531440
  H      -0.9575700      1.0534430     -0.6688140
     22
Step 17: E=-261.073366486
  C       0.7477090      0.0236950      0.0040160
  C       1.4391800      1.2553480     -0.6297800
  H       0.8898140      2.1721190     -0.3816080
  H       2.4645170      1.3591640     -0.2583790
  H       1.4747990      1.1547910     -1.7215480
  C       1.5335130     -1.2562980     -0.3410850
  H       1.0427140     -2.1367880      0.0883190
  H       1.5960060     -1.3873270     -1.4279340
  H       2.5520800     -1.1938470      0.0589740
  C       0.6745720      0.2074890      1.5354700
  H       1.6898680      0.3288340      1.9303990
  H       0.0914670      1.0948150      1.8000950
  H       0.2233370     -0.6644300      2.0191670
  C      -0.6389420     -0.0668220     -0.6532790
  C      -1.7932510     -0.8479250      0.0148990
  H      -0.5661490     -0.2903270     -1.7199050
  H      -1.5204920     -1.3192030      0.9559950
  H      -2.2888510     -1.5388990     -0.6635490
  H      -2.0785410      1.3102860      1.0323640
  H      -2.9651020      1.0802560     -0.8318710
  B      -2.2905260      0.6525960      0.0583190
  H      -0.9509740      1.0507250     -0.6889360
     22
Step 18: E=-261.074258327
  C       0.7502640      0.0235910      0.0034880
  C       1.4436300      1.2550490     -0.6289040
  H       0.8943550      2.1715650     -0.3797410
  H       2.4691890      1.3582840     -0.2578680
  H       1.4786250      1.1556250     -1.7208130
  C       1.5348930     -1.2576190     -0.3405610
  H       1.0416440     -2.1375780      0.0872750
  H       1.5988960     -1.3880480     -1.4274020
  H       2.5529590     -1.1977650      0.0612310
  C       0.6753550      0.2075310      1.5349540
  H       1.6901000      0.3283840      1.9315360
  H       0.0923640      1.0953200      1.7984270
  H       0.2229010     -0.6639090      2.0183950
  C      -0.6359600     -0.0629180     -0.6581700
  C      -1.7953710     -0.8439230      0.0161710
  H      -0.5592590     -0.3056400     -1.7206320
  H      -1.5155590     -1.3169710      0.9545140
  H      -2.2858110     -1.5386910     -0.6625650
  H      -2.0795940      1.3151120      1.0283380
  H      -2.9739740      1.0783380     -0.8286900
  B      -2.3038990      0.6474510      0.0635540
  H      -0.9456600      1.0482290     -0.7087460
     22
Step 19: E=-261.075081219
  C       0.7527070      0.0236120      0.0028020
  C       1.4484500      1.2546890     -0.6279780
  H       0.8996940      2.1711950     -0.3778140
  H       2.4741940      1.3567300     -0.2570300
  H       1.4830800      1.1565270     -1.7200260
  C       1.5363060     -1.2589550     -0.3399800
  H       1.0405150     -2.1383530      0.0862060
  H       1.6022520     -1.3888740     -1.4267700
  H       2.5537000     -1.2015660      0.0639280
  C       0.6761250      0.2076170      1.5343330
  H       1.6903610      0.3279490      1.9324550
  H       0.0932710      1.0958580      1.7967580
  H       0.2225160     -0.6633720      2.0175120
  C      -0.6332120     -0.0595110     -0.6631100
  C      -1.7968860     -0.8400240      0.0172480
  H      -0.5528390     -0.3202230     -1.7211640
  H      -1.5105540     -1.3142950      0.9531590
  H      -2.2831550     -1.5382560     -0.6612790
  H      -2.0830310      1.3188860      1.0254960
  H      -2.9852600      1.0750550     -0.8247280
  B      -2.3176030      0.6429250      0.0688640
  H      -0.9409670      1.0463380     -0.7278920
     22
Step 20: E=-261.075844274
  C       0.7550260      0.0237210      0.0019560
  C       1.4535830      1.2542520     -0.6270220
  H       0.9057450      2.1709960     -0.3758790
  H       2.4794580      1.3545250     -0.2558610
  H       1.4881210      1.1574620     -1.7192060
  C       1.5377210     -1.2602690     -0.3393380
  H       1.0393180     -2.1390860      0.0851210
  H       1.6060120     -1.3897600     -1.4260370
  H       2.5542790     -1.2051910      0.0670450
  C       0.6768550      0.2077550      1.5335900
  H       1.6906300      0.3275670      1.9331150
  H       0.0941510      1.0964270      1.7950850
  H       0.2221880     -0.6628170      2.0165220
  C      -0.6306960     -0.0564700     -0.6680280
  C      -1.7979000     -0.8361860      0.0181610
  H      -0.5469040     -0.3339130     -1.7216850
  H      -1.5054800     -1.3113250      0.9519030
  H      -2.2807030     -1.5377340     -0.6597670
  H      -2.0883990      1.3219940      1.0237020
  H      -2.9982380      1.0708620     -0.8202310
  B      -2.3314960      0.6387970      0.0742190
  H      -0.9367170      1.0446200     -0.7459680
     22
Step 21: E=-261.076553908
  C       0.7572210      0.0238950      0.0009550
  C       1.4589880      1.2537260     -0.6260510
  H       0.9124400      2.1709390     -0.3739640
  H       2.4849370      1.3517060     -0.2543790
  H       1.4937210      1.1583980     -1.7183650
  C       1.5391120     -1.2615390     -0.3386370
  H       1.0380320     -2.1397670      0.0840030
  H       1.6101370     -1.3906720     -1.4252060
  H       2.5546770     -1.2086430      0.0705670
  C       0.6775290      0.2079510      1.5327120
  H       1.6908860      0.3272700      1.9335120
  H       0.0949680      1.0970260      1.7933720
  H       0.2219130     -0.6622390      2.0154250
  C      -0.6283860     -0.0537140     -0.6728790
  C      -1.7984950     -0.8323960      0.0189360
  H      -0.5414380     -0.3466390     -1.7222140
  H      -1.5003510     -1.3081100      0.9507250
  H      -2.2783340     -1.5371680     -0.6580930
  H      -2.0954510      1.3245460      1.0227990
  H      -3.0124450      1.0659860     -0.8153060
  B      -2.3454850      0.6349360      0.0796080
  H      -0.9328630      1.0431430     -0.7629410
     22
Step 22: E=-261.077214662
  C       0.7593040      0.0241170     -0.0001880
  C       1.4646280      1.2530960     -0.6250810
  H       0.9196790      2.1709820     -0.3721190
  H       2.4905750      1.3483420     -0.2526170
  H       1.4998240      1.1592820     -1.7175170
  C       1.5404600     -1.2627570     -0.3378780
  H       1.0366520     -2.1403850      0.0828500
  H       1.6145620     -1.3915890     -1.4242740
  H       2.5548780     -1.2119150      0.0744500
  C       0.6781330      0.2082140      1.5316910
  H       1.6911050      0.3271010      1.9336550
  H       0.0956870      1.0976550      1.7915930
  H       0.2216880     -0.6616280      2.0142270
  C      -0.6262480     -0.0511680     -0.6776330
  C      -1.7987390     -0.8286250      0.0195820
  H      -0.5364230     -0.3583430     -1.7227310
  H      -1.4952320     -1.3046790      0.9496110
  H      -2.2759620     -1.5365650     -0.6563250
  H      -2.1040260      1.3266070      1.0227300
  H      -3.0275350      1.0606050     -0.8100410
  B      -2.3595060      0.6312260      0.0850300
  H      -0.9292380      1.0418640     -0.7786930
     22
Step 23: E=-261.077830004
  C       0.7612890      0.0243730     -0.0014570
  C       1.4704890      1.2523530     -0.6241260
  H       0.9274300      2.1711000     -0.3703560
  H       2.4963790      1.3444720     -0.2506070
  H       1.5064190      1.1600880     -1.7166750
  C       1.5417520     -1.2639290     -0.3370660
  H       1.0351400     -2.1409600      0.0816440
  H       1.6192730     -1.3924900     -1.4232610
  H       2.5548960     -1.2150690      0.0786950
  C       0.6786570      0.2085520      1.5305280
  H       1.6912640      0.3270890      1.9335780
  H       0.0962770      1.0983220      1.7896930
  H       0.2214920     -0.6609730      2.0129290
  C      -0.6242590     -0.0487000     -0.6822550
  C      -1.7987110     -0.8249160      0.0201350
  H      -0.5318310     -0.3690110     -1.7234180
  H      -1.4900600     -1.3011510      0.9485430
  H      -2.2735080     -1.5360020     -0.6545120
  H      -2.1137480      1.3282240      1.0233050
  H      -3.0431480      1.0548340     -0.8045500
  B      -2.3735250      0.6275850      0.0904760
  H      -0.9259460      1.0408170     -0.7933040
     22
Step 24: E=-261.078403015
  C       0.7631950      0.0246610     -0.0028330
  C       1.4765450      1.2514870     -0.6232050
  H       0.9356180      2.1712610     -0.3687250
  H       2.5023060      1.3401620     -0.2483900
  H       1.5134570      1.1607620     -1.7158510
  C       1.5429730     -1.2650600     -0.3362090
  H       1.0334910     -2.1414860      0.0803690
  H       1.6242130     -1.3933730     -1.4221620
  H       2.5547060     -1.2181210      0.0832510
  C       0.6790960      0.2089780      1.5292260
  H       1.6913410      0.3272720      1.9333100
  H       0.0967100      1.0990310      1.7876560
  H       0.2213220     -0.6602580      2.0115380
  C      -0.6223860     -0.0463050     -0.6867360
  C      -1.7984370     -0.8212430      0.0205730
  H      -0.5276520     -0.3785570     -1.7240690
  H      -1.4849310     -1.2974730      0.9475020
  H      -2.2709490     -1.5354280     -0.6527170
  H      -2.1247240      1.3293140      1.0245700
  H      -3.0592780      1.0486840     -0.7987950
  B      -2.3874920      0.6239650      0.0959450
  H      -0.9228390      1.0400700     -0.8067100
     22
Step 25: E=-261.07893632
  C       0.7650430      0.0249720     -0.0042990
  C       1.4827780      1.2504920     -0.6223330
  H       0.9441780      2.1714380     -0.3672640
  H       2.5083390      1.3354760     -0.2460150
  H       1.5208920      1.1612610     -1.7150610
  C       1.5441100     -1.2661630     -0.3353100
  H       1.0316830     -2.1419750      0.0790240
  H       1.6293230     -1.3942340     -1.4209890
  H       2.5543160     -1.2211160      0.0880770
  C       0.6794450      0.2095040      1.5277990
  H       1.6913190      0.3276820      1.9328950
  H       0.0969650      1.0997910      1.7854630
  H       0.2211640     -0.6594680      2.0100650
  C      -0.6206120     -0.0439030     -0.6910480
  C      -1.7979580     -0.8176140      0.0209020
  H      -0.5238460     -0.3870050     -1.7247780
  H      -1.4798520     -1.2937270      0.9464690
  H      -2.2682390     -1.5348640     -0.6510000
  H      -2.1367470      1.3299010      1.0264860
  H      -3.0757200      1.0422420     -0.7928370
  B      -2.4013900      0.6203050      0.1014340
  H      -0.9198930      1.0396180     -0.8189130
     22
Step 26: E=-261.079432427
  C       0.7668470      0.0253060     -0.0058310
  C       1.4891720      1.2493650     -0.6215310
  H       0.9530640      2.1716120     -0.3660090
  H       2.5144660      1.3304680     -0.2435280
  H       1.5286810      1.1615440     -1.7143200
  C       1.5451490     -1.2672540     -0.3343790
  H       1.0296970     -2.1424350      0.0776030
  H       1.6345490     -1.3950780     -1.4197500
  H       2.5537250     -1.2240990      0.0931290
  C       0.6797040      0.2101450      1.5262600
  H       1.6911870      0.3283470      1.9323720
  H       0.0970280      1.1006170      1.7831010
  H       0.2210080     -0.6585850      2.0085270
  C      -0.6189170     -0.0414460     -0.6951690
  C      -1.7973000     -0.8140370      0.0211110
  H      -0.5203850     -0.3943150     -1.7255570
  H      -1.4748420     -1.2899500      0.9454190
  H      -2.2653490     -1.5343070     -0.6494170
  H      -2.1497330      1.3299500      1.0290400
  H      -3.0923870      1.0355410     -0.7866940